 +-------------------------------------------------+
 |                                                 |
 |      CCC   AA    SSS  TTTTT  EEEEE  PPPP        |
 |     C     A  A  S       T    E      P   P       |
 |     C     AAAA   SS     T    EEE    PPPP        |
 |     C     A  A     S    T    E      P           |
 |      CCC  A  A  SSS     T    EEEEE  P           |
 |                                                 |
 +-------------------------------------------------+
 |                                                 |
 | Welcome to Academic Release CASTEP version 8.0  |
 | Ab Initio Total Energy Program                  |
 |                                                 |
 | Authors:                                        |
 | M. Segall, M. Probert, C. Pickard, P. Hasnip,   |
 | S. Clark, K. Refson, J. R. Yates, M. Payne      |
 |                                                 |
 | Contributors:                                   |
 | P. Lindan, P. Haynes, J. White, V. Milman,      |
 | N. Govind, M. Gibson, P. Tulip, V. Cocula,      |
 | B. Montanari, D. Quigley, M. Glover,            |
 | L. Bernasconi, A. Perlov, M. Plummer,           |
 | E. McNellis, J. Meyer, J. Gale, D. Jochym       |
 | J. Aarons, B. Walker, R. Gillen, D. Jones       |
 | T. Green                                        |
 |                                                 |
 | Copyright (c) 2000 - 2014                       |
 |                                                 |
 |     Distributed under the terms of an           |
 |     Agreement between the United Kingdom        |
 |     Car-Parrinello (UKCP) Consortium,           |
 |     Daresbury Laboratory and Accelrys, Inc.     |
 |                                                 |
 | Please cite                                     |
 |                                                 |
 |     "First principles methods using CASTEP"     |
 |                                                 |
 |         Zeitschrift fuer Kristallographie       |
 |           220(5-6) pp. 567-570 (2005)           |
 |                                                 |
 | S. J. Clark, M. D. Segall, C. J. Pickard,       |
 | P. J. Hasnip, M. J. Probert, K. Refson,         |
 | M. C. Payne                                     |
 |                                                 |
 |       in all publications arising from          |
 |              your use of CASTEP                 |
 |                                                 |
 +-------------------------------------------------+
 
 
 Compiled for linux_x86_64_ifort15 on Tue, 03 Mar 2015 15:01:09 +0000
 from code version 7a66ba17f5c9+  Mon, 08 Dec 2014 20:23:19 +0000
 Compiler: Intel Fortran 15.0.0.090; Optimisation: intermediate
 MATHLIBS: Intel MKL(11.2.0) (LAPACK version 3.4.1)
 FFT Lib : fftw3 version fftw-3.3.3-avx
 Fundamental constants values: CODATA 2010
 
 Run started: Thu, 30 Apr 2015 13:18:43 +0100
 Warning - deprecated keyword PHONON_SUM_RULE found in input file
         - preferred usage is PHONON_SUM_RULE_METHOD
 +-------------------------------------------------+
 |                                                 |
 |  D D D D    F F F F F  P P P P     T T T T T    |
 |  D       D  F          P       P       T        |
 |  D       D  F F F F    P P P P         T        |
 |  D       D  F          P               T        |
 |  D D D D    F          P               T        |
 |                                                 |
 +-------------------------------------------------+
 |                                                 |
 | Welcome to Castep Linear Response (DFPT)        |
 |                                                 |
 | Copyright (c) 2006 - 2014                       |
 |                                                 |
 | Please cite the following publications in all   |
 | work arising from your use of CASTEP LR.        |
 |                                                 |
 | K. Refson, S. J. Clark and P. R. Tulip          |
 | Variational density functional perturbation     |
 | theory for dielectrics and lattice dynamics     |
 | Phys. Rev. B 73(15), 155114 (2006)              |
 +-------------------------------------------------+
 
 +---------------------------------------------------+
 |                                                   |
 |  Using DFT-SEDC - the DFT Semi-Empirical          |
 |  Dispersion interaction Correction module         |
 |  Copyright (c) 2008 Erik McNellis and Joerg Meyer |
 |  Fritz-Haber-Institut der MPG. Distributed under  |
 |  the GNU Lesser General Public License (LGPL).    |
 |                                                   |
 | Please cite the following publications in all     |
 | work arising from your use of CASTEP SEDC.        |
 |                                                   |
 | Erik R. McNellis, Joerg Meyer, and Karsten Reuter |
 | Phys. Rev. B 80, 205414 (2009)                    |
 +---------------------------------------------------+
 
 
 Pseudo atomic calculation performed for H 1s1
 
 Converged in 21 iterations to a total energy of -12.4781 eV
 
 
 Pseudo atomic calculation performed for C 2s2 2p2
 
 Converged in 26 iterations to a total energy of -146.4297 eV
 
 
 Pseudo atomic calculation performed for N 2s2 2p3
 
 Converged in 36 iterations to a total energy of -263.6361 eV
 
 
 Pseudo atomic calculation performed for O 2s2 2p4
 
 Converged in 37 iterations to a total energy of -423.8867 eV
 
 Calculation parallelised over 16 processes.
 Data is distributed by G-vector(16-way)

 ************************************ Title ************************************
 

 ***************************** General Parameters ******************************
  
 output verbosity                               : normal  (1)
 write checkpoint data to                       : phonon.check
 type of calculation                            : Phonon followed by E-field
 stress calculation                             : on
 density difference calculation                 : off
 electron localisation func (ELF) calculation   : off
 Hirshfeld analysis                             : off
 unlimited duration calculation
 timing information                             : on
 memory usage estimate                          : on
 write final potential to formatted file        : off
 write final density to formatted file          : off
 write BibTeX reference list                    : on
 checkpoint writing                             : both castep_bin and check files
  
 output         length unit                     : A
 output           mass unit                     : amu
 output           time unit                     : ps
 output         charge unit                     : e
 output           spin unit                     : hbar/2
 output         energy unit                     : eV
 output          force unit                     : eV/A
 output       velocity unit                     : A/ps
 output       pressure unit                     : GPa
 output     inv_length unit                     : 1/A
 output      frequency unit                     : cm-1
 output force constant unit                     : eV/A**2
 output         volume unit                     : A**3
 output   IR intensity unit                     : (D/A)**2/amu
 output         dipole unit                     : D
 output         efield unit                     : eV/A/e
 output        entropy unit                     : J/mol/K
  
 wavefunctions paging                           : none
 random number generator seed                   : randomised (131844434)
 data distribution                              : optimal for this architecture
 optimization strategy                          : maximize speed(+++)

 *********************** Exchange-Correlation Parameters ***********************
  
 using functional                               : Perdew Burke Ernzerhof
 Divergence correction                          : off
 relativistic treatment                         : Koelling-Harmon
 DFT+D: Semi-empirical dispersion correction    : on
 SEDC with                                      : TS correction scheme
 Damping fn: SR value for customised TS scheme  :     1.0750

 ************************* Pseudopotential Parameters **************************
  
 pseudopotential representation                 : reciprocal space
 <beta|phi> representation                      : reciprocal space

 **************************** Basis Set Parameters *****************************
  
 plane wave basis set cut-off                   :  1000.0000   eV
 size of standard grid                          :     2.0000
 size of   fine   grid                          :     4.0000
 size of   fine   gmax                          :    64.8035   1/A
 largest prime factor in FFT                    :          5
 finite basis set correction                    : automatic
 number of sample energies                      :          3
           sample  spacing                      :     5.0000   eV

 **************************** Electronic Parameters ****************************
  
 number of  electrons                           :  216.0    
 net charge of system                           :  0.000    
 net spin   of system                           :  0.000    
 number of  up  spins                           :  108.0    
 number of down spins                           :  108.0    
 treating system as non-spin-polarized
 number of bands                                :        108

 ********************* Electronic Minimization Parameters **********************
  
 Method: Treating system as non-metallic,
         and number of  SD  steps               :          1
         and number of  CG  steps               :          8
  
 total energy / atom convergence tol.           : 0.2219E-09   eV
 max force / atom convergence tol.              : ignored
 convergence tolerance window                   :          3   cycles
 max. number of SCF cycles                      :         30
 periodic dipole correction                     : NONE

 *********************** Population Analysis Parameters ************************
  
 Population analysis with cutoff                :  3.000       A

 ****************************** Phonon Parameters ******************************
  
 phonon calculation method                      : linear response
 phonon convergence tolerance                   : 0.1000E-04   eV/A**2
 max. number of phonon cycles                   :         50
 max. number of phonon CG steps                 :          0
 convergence tolerance window                   :          2   cycles
 DFPT solver method                             : AllBands (Gonze variational method)
 preconditioning scheme                         : TPA     
 fine phonon calculation method                 : none
 LO/TO splitting term                           : included
 acoustic phonon sum rule                       : correct D(q) in recip-space
 Born effective charges                         : calculated
 Born charge sum rule                           : explicitly enforced
 Raman intensities                              : not calculated
 phonon k-points                                : use reduced set
 phonon DOS                                     : not calculated
 backups results every                          :       1800   seconds

 ***************************** E-Field Parameters ******************************
  
 E-field convergence tolerance                  : 0.1000E-04   A**3
 DFPT solver method                             : AllBands (Gonze variational method)
 ionic contribution to permittivity             : included
 treating system as a crystal, 
 => ignoring 3 lowest modes when calculating ionic  contribution to permittivity
 calculation with frequency spacing             : 0.4556E-05   cm-1
 Q-factor for lineshape broadening              :    50.0000
 max. number of E-field cycles                  :         50
 max. number of E-field CG steps                :          0
 convergence tolerance window                   :          2   cycles
 band convergence tolerance                     : 0.1000E-08   eV

 *******************************************************************************
  
 
                           -------------------------------
                                      Unit Cell
                           -------------------------------
        Real Lattice(A)                      Reciprocal Lattice(1/A)
   9.6720477   0.0000000   0.1174376        0.6488714   0.0000000   0.0619047
   0.0000000   5.2717509   0.0000000        0.0000000   1.1918593   0.0000000
  -1.3278488   0.0000000  13.9182075       -0.0054750   0.0000000   0.4509141
 
                       Lattice parameters(A)       Cell Angles
                    a =    9.672761          alpha =   90.000000
                    b =    5.271751          beta  =   94.754088
                    c =   13.981405          gamma =   90.000000
 
                       Current cell volume =  710.492354       A**3
 
                           -------------------------------
                                     Cell Contents
                           -------------------------------
                         Total number of ions in cell =   88
                      Total number of species in cell =    4
                        Max number of any one species =   52
 
            xxxxxxxxxxxxxxxxxxxxxxxxxxxxxxxxxxxxxxxxxxxxxxxxxxxxxxxxxxxx
            x  Element    Atom        Fractional coordinates of atoms  x
            x            Number           u          v          w      x
            x----------------------------------------------------------x
            x  H            1         0.296252   0.629900   0.396910   x 
            x  H            2         0.703748   0.129900   0.603090   x 
            x  H            3         0.470347   0.702572   0.414638   x 
            x  H            4         0.529653   0.202572   0.585362   x 
            x  H            5         0.355734   0.808557   0.490806   x 
            x  H            6         0.644266   0.308557   0.509194   x 
            x  H            7         0.426806   0.140321   0.392737   x 
            x  H            8         0.573194   0.640321   0.607263   x 
            x  H            9         0.445656   0.836678   0.253093   x 
            x  H           10         0.554344   0.336678   0.746907   x 
            x  H           11         0.329620   0.365673   0.225670   x 
            x  H           12         0.670380   0.865673   0.774330   x 
            x  H           13         0.502581   0.282012   0.254504   x 
            x  H           14         0.497419   0.782012   0.745496   x 
            x  H           15         0.469247   0.390113   0.084090   x 
            x  H           16         0.530753   0.890113   0.915910   x 
            x  H           17         0.332401   0.173184   0.064559   x 
            x  H           18         0.667599   0.673184   0.935441   x 
            x  H           19         0.502622   0.062562   0.092162   x 
            x  H           20         0.497378   0.562562   0.907838   x 
            x  H           21         0.194753   0.698705   0.241114   x 
            x  H           22         0.805247   0.198705   0.758886   x 
            x  H           23         0.252252   0.803911   0.132008   x 
            x  H           24         0.747748   0.303911   0.867992   x 
            x  H           25         0.148533   1.002967   0.197555   x 
            x  H           26         0.851467   0.502967   0.802445   x 
            x  H           27         0.834497   0.227118   0.379826   x 
            x  H           28         0.165503   0.727118   0.620174   x 
            x  H           29         0.998596   0.354947   0.379497   x 
            x  H           30         0.001404   0.854947   0.620503   x 
            x  H           31         0.895028   0.428711   0.465827   x 
            x  H           32         0.104972   0.928711   0.534173   x 
            x  H           33         0.924616   0.750076   0.336273   x 
            x  H           34         0.075384   0.250076   0.663727   x 
            x  H           35         0.714546   0.392094   0.234911   x 
            x  H           36         0.285454   0.892094   0.765089   x 
            x  H           37         1.006666   0.532762   0.191605   x 
            x  H           38        -0.006666   0.032762   0.808395   x 
            x  H           39         0.947751   0.234763   0.222915   x 
            x  H           40         0.052249   0.734763   0.777085   x 
            x  H           41         0.967494   0.230627   0.052457   x 
            x  H           42         0.032506   0.730627   0.947543   x 
            x  H           43         0.873990   0.513920   0.034737   x 
            x  H           44         0.126010   1.013920   0.965263   x 
            x  H           45         0.788535   0.235991   0.066413   x 
            x  H           46         0.211465   0.735991   0.933587   x 
            x  H           47         0.661852   0.858079   0.209342   x 
            x  H           48         0.338148   0.358079   0.790658   x 
            x  H           49         0.693569   0.696290   0.103561   x 
            x  H           50         0.306431   0.196290   0.896439   x 
            x  H           51         0.822644   0.890845   0.161095   x 
            x  H           52         0.177356   0.390845   0.838905   x 
            x  C            1         0.204503   0.122878   0.383661   x 
            x  C            2         0.795497   0.622878   0.616339   x 
            x  C            3         0.345312   0.011709   0.364445   x 
            x  C            4         0.654688   0.511709   0.635555   x 
            x  C            5         0.361151   0.973638   0.257228   x 
            x  C            6         0.638849   0.473638   0.742772   x 
            x  C            7         0.407032   0.221140   0.213807   x 
            x  C            8         0.592968   0.721140   0.786193   x 
            x  C            9         0.428877   0.210097   0.108273   x 
            x  C           10         0.571123   0.710097   0.891727   x 
            x  C           11         0.232187   0.863497   0.204125   x 
            x  C           12         0.767813   0.363497   0.795875   x 
            x  C           13         0.718276   0.731949   0.380963   x 
            x  C           14         0.281724   0.231949   0.619037   x 
            x  C           15         0.840536   0.611950   0.334517   x 
            x  C           16         0.159464   0.111950   0.665483   x 
            x  C           17         0.797507   0.532428   0.231203   x 
            x  C           18         0.202493   0.032428   0.768797   x 
            x  C           19         0.916460   0.407646   0.183948   x 
            x  C           20         0.083540   0.907646   0.816052   x 
            x  C           21         0.884568   0.343988   0.079059   x 
            x  C           22         0.115432   0.843988   0.920941   x 
            x  C           23         0.740343   0.756362   0.173324   x 
            x  C           24         0.259657   0.256362   0.826676   x 
            x  N            1         0.367503   0.770969   0.419278   x 
            x  N            2         0.632497   0.270969   0.580722   x 
            x  N            3         0.894953   0.390522   0.392229   x 
            x  N            4         0.105047   0.890522   0.607771   x 
            x  O            1         0.117770   0.976875   0.414478   x 
            x  O            2         0.882230   0.476875   0.585522   x 
            x  O            3         0.184154   0.351335   0.364444   x 
            x  O            4         0.815846   0.851335   0.635556   x 
            x  O            5         0.629861   0.580501   0.408853   x 
            x  O            6         0.370139   0.080501   0.591147   x 
            x  O            7         0.712203   0.965535   0.384757   x 
            x  O            8         0.287797   0.465535   0.615243   x 
            xxxxxxxxxxxxxxxxxxxxxxxxxxxxxxxxxxxxxxxxxxxxxxxxxxxxxxxxxxxx
 
 
                         No user defined ionic velocities
 
                           -------------------------------
                                   Details of Species
                           -------------------------------
 
                               Mass of species in AMU
                                    H    1.0079400
                                    C   12.0107000
                                    N   14.0067400
                                    O   15.9994000
 
                          Electric Quadrupole Moment (Barn)
                                    H    0.0028600 Isotope  2
                                    C    0.0332700 Isotope 11
                                    N    0.0204400 Isotope 14
                                    O   -0.0255800 Isotope 17
 
                          Files used for pseudopotentials:
                                    H /home/ufaserv1_a/eenadbu/Pseudopotentials/MS/H_00.recpot
                                    C /home/ufaserv1_a/eenadbu/Pseudopotentials/MS/C_00.recpot
                                    N /home/ufaserv1_a/eenadbu/Pseudopotentials/MS/N_00.recpot
                                    O /home/ufaserv1_a/eenadbu/Pseudopotentials/RB/o-optgga1.recpot
 
                           -------------------------------
                              k-Points For BZ Sampling
                           -------------------------------
                       MP grid size for SCF calculation is  2  2  1
                            with an offset of   0.000  0.000  0.000
                       Number of kpoints used =             1
 
                           -------------------------------
                               Symmetry and Constraints
                           -------------------------------
 
                      Maximum deviation from symmetry = 0.395024E-13     ANG
 
                      Number of symmetry operations   =           2
                      Number of ionic constraints     =           3
                      Point group of crystal =     4: C2, 2, 2
                      Space group of crystal =     4: P2_1, P 2yb
 
             Set iprint > 1 for details on symmetry rotations/translations
 
                         Centre of mass is constrained
             Set iprint > 1 for details of linear ionic constraints
 
                         Number of cell constraints= 2
                         Cell constraints are:  1 2 3 0 5 0
 
                         External pressure/stress (GPa)
                          0.00000   0.00000   0.00000
                                    0.00000   0.00000
                                              0.00000
 
                                --------------------
                                  DFT-D parameters
                                --------------------
 
                          Dispersion-correction scheme : TS                                                                              
                        Parameter sR :   1.075000 (customized)
                        Parameter d  :  20.000000 (default)
 
        xxxxxxxxxxxxxxxxxxxxxxxxxxxxxxxxxxxxxxxxxxxxxxxxxxxxxxxxxxxxxxxxxxxx
        x              Atomic DFT-D parameters                             x
        x  Species      C6            alpha        R0                      x
        x               eV A^6        A^3          A                       x
        x------------------------------------------------------------------x
        x  H             3.8839       0.6668       1.6404   (default)      x
        x  C            27.8447       1.7782       1.8997   (default)      x
        x  N            14.4601       1.0966       1.7675   (default)      x
        x  O             9.3214       0.8002       1.6881   (default)      x
        xxxxxxxxxxxxxxxxxxxxxxxxxxxxxxxxxxxxxxxxxxxxxxxxxxxxxxxxxxxxxxxxxxxx
 
  
+---------------- MEMORY AND SCRATCH DISK ESTIMATES PER PROCESS --------------+
|                                                     Memory          Disk    |
| Model and support data                              109.7 MB         0.0 MB |
| Electronic energy minimisation requirements          50.1 MB         0.0 MB |
|                                               ----------------------------- |
| Approx. total storage required per process          159.8 MB         0.0 MB |
|                                                                             |
| Requirements will fluctuate during execution and may exceed these estimates |
+-----------------------------------------------------------------------------+
Calculating finite basis set correction with  3 cut-off energies.
Calculating total energy with cut-off of  990.000eV.
------------------------------------------------------------------------ <-- SCF
SCF loop      Energy                           Energy gain       Timer   <-- SCF
                                               per atom          (sec)   <-- SCF
------------------------------------------------------------------------ <-- SCF
Initial   8.38421466E+003                                         13.22  <-- SCF
      1  -3.32002727E+003                    1.33002749E+002      86.46  <-- SCF
      2  -8.99596208E+003                    6.44992591E+001     133.59  <-- SCF
      3  -9.11665196E+003                    1.37147600E+000     176.94  <-- SCF
      4  -9.11835993E+003                    1.94086752E-002     220.32  <-- SCF
      5  -9.11836090E+003                    1.10232922E-005     263.80  <-- SCF
      6  -9.11836090E+003                    8.84957934E-009     307.28  <-- SCF
      7  -9.11836090E+003                    1.03177801E-011     375.02  <-- SCF
      8  -9.11836090E+003                    0.00000000E+000     467.12  <-- SCF
------------------------------------------------------------------------ <-- SCF
 
Final energy =  -9118.360898298     eV
(energy not corrected for finite basis set)
 
 WARNING: Your unit cell might be too small to get accurate results for van der 
 Waals

Dispersion corrected final energy* =  -9121.585432251     eV

 * not corrected for finite basis set

Calculating total energy with cut-off of  995.000eV.
------------------------------------------------------------------------ <-- SCF
SCF loop      Energy                           Energy gain       Timer   <-- SCF
                                               per atom          (sec)   <-- SCF
------------------------------------------------------------------------ <-- SCF
Initial  -9.11836090E+003                                        533.00  <-- SCF
      1  -9.11836406E+003                    3.58959512E-005     591.46  <-- SCF
      2  -9.11836406E+003                    4.74582731E-013     672.61  <-- SCF
      3  -9.11836406E+003                    1.23039967E-013     761.13  <-- SCF
------------------------------------------------------------------------ <-- SCF
 
Final energy =  -9118.364057142     eV
(energy not corrected for finite basis set)
 

Dispersion corrected final energy* =  -9121.588588315     eV

 * not corrected for finite basis set

Calculating total energy with cut-off of 1000.000eV.
------------------------------------------------------------------------ <-- SCF
SCF loop      Energy                           Energy gain       Timer   <-- SCF
                                               per atom          (sec)   <-- SCF
------------------------------------------------------------------------ <-- SCF
Initial  -9.11836406E+003                                        826.93  <-- SCF
      1  -9.11836691E+003                    3.24615564E-005     888.23  <-- SCF
      2  -9.11836691E+003                    5.27314146E-014     981.76  <-- SCF
      3  -9.11836691E+003                    1.75771382E-014    1075.00  <-- SCF
------------------------------------------------------------------------ <-- SCF
 
Final energy =  -9118.366913759     eV
(energy not corrected for finite basis set)
 

Dispersion corrected final energy* =  -9121.591442466     eV

 * not corrected for finite basis set

 For future reference: finite basis dEtot/dlog(Ecut) =      -0.600032eV
 Total energy corrected for finite basis set =   -9121.591412 eV

 Efield perturbation    1:  X                                          1212.03s
  Parallel strategy changed for perturbation using 2 k-points
  Data is distributed by G-vector(8-way) and k-point(2-way) and band(1-way)
  +---------------- MEMORY AND SCRATCH DISK ESTIMATES PER PROCESS --------------+
  |                                                     Memory          Disk    |
  | Model and support data                               76.9 MB         0.0 MB |
  | DFPT E-field response requirements                  156.7 MB         0.0 MB |
  |                                               ----------------------------- |
  | Approx. total storage required per process          233.7 MB         0.0 MB |
  |                                                                             |
  | Requirements will fluctuate during execution and may exceed these estimates |
  +-----------------------------------------------------------------------------+

 Efield perturbation    2:  Y                                          1735.52s
  Parallel strategy changed for perturbation using 1 k-points
  Data is distributed by G-vector(16-way) and k-point(1-way) and band(1-way)

 Efield perturbation    3:  Z                                          1921.62s
  Parallel strategy changed for perturbation using 2 k-points
  Data is distributed by G-vector(8-way) and k-point(2-way) and band(1-way)
 Perturbation    1 (of  132): H     1 X at q=( 0.000, 0.000, 0.000):   2322.20s
  Parallel strategy changed for perturbation using 2 k-points
  Data is distributed by G-vector(8-way) and k-point(2-way) and band(1-way)
  +---------------- MEMORY AND SCRATCH DISK ESTIMATES PER PROCESS --------------+
  |                                                     Memory          Disk    |
  | Model and support data                               76.9 MB         0.0 MB |
  | DFPT phonon calculation requirements                192.9 MB         0.0 MB |
  |                                               ----------------------------- |
  | Approx. total storage required per process          269.8 MB         0.0 MB |
  |                                                                             |
  | Requirements will fluctuate during execution and may exceed these estimates |
  +-----------------------------------------------------------------------------+
 Perturbation    2 (of  132): H     3 X at q=( 0.000, 0.000, 0.000):   2701.24s

Writing analysis data to phonon.castep_bin

Writing model to phonon.check
 Perturbation    3 (of  132): H     5 X at q=( 0.000, 0.000, 0.000):   3080.88s
 Perturbation    4 (of  132): H     7 X at q=( 0.000, 0.000, 0.000):   3436.15s
 Perturbation    5 (of  132): H     9 X at q=( 0.000, 0.000, 0.000):   3808.58s
 Perturbation    6 (of  132): H    11 X at q=( 0.000, 0.000, 0.000):   4181.73s
 Perturbation    7 (of  132): H    13 X at q=( 0.000, 0.000, 0.000):   4537.27s

Writing analysis data to phonon.castep_bin

Writing model to phonon.check
 Perturbation    8 (of  132): H    15 X at q=( 0.000, 0.000, 0.000):   4907.77s
 Perturbation    9 (of  132): H    17 X at q=( 0.000, 0.000, 0.000):   5316.90s
 Perturbation   10 (of  132): H    19 X at q=( 0.000, 0.000, 0.000):   5764.24s
 Perturbation   11 (of  132): H    21 X at q=( 0.000, 0.000, 0.000):   6204.12s
 Perturbation   12 (of  132): H    23 X at q=( 0.000, 0.000, 0.000):   6682.41s

Writing analysis data to phonon.castep_bin

Writing model to phonon.check
 Perturbation   13 (of  132): H    25 X at q=( 0.000, 0.000, 0.000):   7150.69s
 Perturbation   14 (of  132): H    27 X at q=( 0.000, 0.000, 0.000):   7593.40s
 Perturbation   15 (of  132): H    29 X at q=( 0.000, 0.000, 0.000):   8067.30s
 Perturbation   16 (of  132): H    31 X at q=( 0.000, 0.000, 0.000):   8617.64s

Writing analysis data to phonon.castep_bin

Writing model to phonon.check
 Perturbation   17 (of  132): H    33 X at q=( 0.000, 0.000, 0.000):   9162.43s
 Perturbation   18 (of  132): H    35 X at q=( 0.000, 0.000, 0.000):   9689.94s
 Perturbation   19 (of  132): H    37 X at q=( 0.000, 0.000, 0.000):  10167.44s
 Perturbation   20 (of  132): H    39 X at q=( 0.000, 0.000, 0.000):  10746.69s

Writing analysis data to phonon.castep_bin

Writing model to phonon.check
 Perturbation   21 (of  132): H    41 X at q=( 0.000, 0.000, 0.000):  11378.57s
 Perturbation   22 (of  132): H    43 X at q=( 0.000, 0.000, 0.000):  11782.85s
 Perturbation   23 (of  132): H    45 X at q=( 0.000, 0.000, 0.000):  12151.73s
 Perturbation   24 (of  132): H    47 X at q=( 0.000, 0.000, 0.000):  12533.88s
 Perturbation   25 (of  132): H    49 X at q=( 0.000, 0.000, 0.000):  12987.59s

Writing analysis data to phonon.castep_bin

Writing model to phonon.check
 Perturbation   26 (of  132): H    51 X at q=( 0.000, 0.000, 0.000):  13420.17s
 Perturbation   27 (of  132): C     1 X at q=( 0.000, 0.000, 0.000):  13905.63s
 Perturbation   28 (of  132): C     3 X at q=( 0.000, 0.000, 0.000):  14484.03s
 Perturbation   29 (of  132): C     5 X at q=( 0.000, 0.000, 0.000):  15007.89s

Writing analysis data to phonon.castep_bin

Writing model to phonon.check
 Perturbation   30 (of  132): C     7 X at q=( 0.000, 0.000, 0.000):  15484.28s
 Perturbation   31 (of  132): C     9 X at q=( 0.000, 0.000, 0.000):  15957.41s
 Perturbation   32 (of  132): C    11 X at q=( 0.000, 0.000, 0.000):  16407.26s
 Perturbation   33 (of  132): C    13 X at q=( 0.000, 0.000, 0.000):  16887.46s

Writing analysis data to phonon.castep_bin

Writing model to phonon.check
 Perturbation   34 (of  132): C    15 X at q=( 0.000, 0.000, 0.000):  17503.42s
 Perturbation   35 (of  132): C    17 X at q=( 0.000, 0.000, 0.000):  18093.75s
 Perturbation   36 (of  132): C    19 X at q=( 0.000, 0.000, 0.000):  18648.10s
 Perturbation   37 (of  132): C    21 X at q=( 0.000, 0.000, 0.000):  19194.31s

Writing analysis data to phonon.castep_bin

Writing model to phonon.check
 Perturbation   38 (of  132): C    23 X at q=( 0.000, 0.000, 0.000):  19727.81s
 Perturbation   39 (of  132): N     1 X at q=( 0.000, 0.000, 0.000):  20223.16s
 Perturbation   40 (of  132): N     3 X at q=( 0.000, 0.000, 0.000):  20723.11s
 Perturbation   41 (of  132): O     1 X at q=( 0.000, 0.000, 0.000):  21274.78s

Writing analysis data to phonon.castep_bin

Writing model to phonon.check
 Perturbation   42 (of  132): O     3 X at q=( 0.000, 0.000, 0.000):  21852.62s
 Perturbation   43 (of  132): O     5 X at q=( 0.000, 0.000, 0.000):  22485.93s
 Perturbation   44 (of  132): O     7 X at q=( 0.000, 0.000, 0.000):  23139.69s

Writing analysis data to phonon.castep_bin

Writing model to phonon.check
 Perturbation   45 (of  132): H     1 Y at q=( 0.000, 0.000, 0.000):  23728.41s
 Perturbation   46 (of  132): H     3 Y at q=( 0.000, 0.000, 0.000):  24138.81s
 Perturbation   47 (of  132): H     5 Y at q=( 0.000, 0.000, 0.000):  24580.39s
 Perturbation   48 (of  132): H     7 Y at q=( 0.000, 0.000, 0.000):  25035.40s
 Perturbation   49 (of  132): H     9 Y at q=( 0.000, 0.000, 0.000):  25497.43s

Writing analysis data to phonon.castep_bin

Writing model to phonon.check
 Perturbation   50 (of  132): H    11 Y at q=( 0.000, 0.000, 0.000):  25990.92s
 Perturbation   51 (of  132): H    13 Y at q=( 0.000, 0.000, 0.000):  26433.17s
 Perturbation   52 (of  132): H    15 Y at q=( 0.000, 0.000, 0.000):  26900.99s
 Perturbation   53 (of  132): H    17 Y at q=( 0.000, 0.000, 0.000):  27331.06s
 Perturbation   54 (of  132): H    19 Y at q=( 0.000, 0.000, 0.000):  27693.77s

Writing analysis data to phonon.castep_bin

Writing model to phonon.check
 Perturbation   55 (of  132): H    21 Y at q=( 0.000, 0.000, 0.000):  28098.56s
 Perturbation   56 (of  132): H    23 Y at q=( 0.000, 0.000, 0.000):  28518.94s
 Perturbation   57 (of  132): H    25 Y at q=( 0.000, 0.000, 0.000):  28933.65s
 Perturbation   58 (of  132): H    27 Y at q=( 0.000, 0.000, 0.000):  29383.78s
 Perturbation   59 (of  132): H    29 Y at q=( 0.000, 0.000, 0.000):  29854.81s

Writing analysis data to phonon.castep_bin

Writing model to phonon.check
 Perturbation   60 (of  132): H    31 Y at q=( 0.000, 0.000, 0.000):  30326.99s
 Perturbation   61 (of  132): H    33 Y at q=( 0.000, 0.000, 0.000):  30808.03s
 Perturbation   62 (of  132): H    35 Y at q=( 0.000, 0.000, 0.000):  31273.92s
 Perturbation   63 (of  132): H    37 Y at q=( 0.000, 0.000, 0.000):  31690.52s

Writing analysis data to phonon.castep_bin

Writing model to phonon.check
 Perturbation   64 (of  132): H    39 Y at q=( 0.000, 0.000, 0.000):  32144.32s
 Perturbation   65 (of  132): H    41 Y at q=( 0.000, 0.000, 0.000):  32639.53s
 Perturbation   66 (of  132): H    43 Y at q=( 0.000, 0.000, 0.000):  33141.22s
 Perturbation   67 (of  132): H    45 Y at q=( 0.000, 0.000, 0.000):  33620.45s

Writing analysis data to phonon.castep_bin

Writing model to phonon.check
 Perturbation   68 (of  132): H    47 Y at q=( 0.000, 0.000, 0.000):  34080.04s
 Perturbation   69 (of  132): H    49 Y at q=( 0.000, 0.000, 0.000):  34575.61s
 Perturbation   70 (of  132): H    51 Y at q=( 0.000, 0.000, 0.000):  35114.99s
 Perturbation   71 (of  132): C     1 Y at q=( 0.000, 0.000, 0.000):  35591.28s

Writing analysis data to phonon.castep_bin

Writing model to phonon.check
 Perturbation   72 (of  132): C     3 Y at q=( 0.000, 0.000, 0.000):  36232.22s
 Perturbation   73 (of  132): C     5 Y at q=( 0.000, 0.000, 0.000):  36896.83s
 Perturbation   74 (of  132): C     7 Y at q=( 0.000, 0.000, 0.000):  37487.27s

Writing analysis data to phonon.castep_bin

Writing model to phonon.check
 Perturbation   75 (of  132): C     9 Y at q=( 0.000, 0.000, 0.000):  38055.33s
 Perturbation   76 (of  132): C    11 Y at q=( 0.000, 0.000, 0.000):  38584.39s
 Perturbation   77 (of  132): C    13 Y at q=( 0.000, 0.000, 0.000):  39118.74s
 Perturbation   78 (of  132): C    15 Y at q=( 0.000, 0.000, 0.000):  39740.30s

Writing analysis data to phonon.castep_bin

Writing model to phonon.check
 Perturbation   79 (of  132): C    17 Y at q=( 0.000, 0.000, 0.000):  40382.67s
 Perturbation   80 (of  132): C    19 Y at q=( 0.000, 0.000, 0.000):  40937.82s
 Perturbation   81 (of  132): C    21 Y at q=( 0.000, 0.000, 0.000):  41493.85s
 Perturbation   82 (of  132): C    23 Y at q=( 0.000, 0.000, 0.000):  42041.22s

Writing analysis data to phonon.castep_bin

Writing model to phonon.check
 Perturbation   83 (of  132): N     1 Y at q=( 0.000, 0.000, 0.000):  42602.77s
 Perturbation   84 (of  132): N     3 Y at q=( 0.000, 0.000, 0.000):  43158.10s
 Perturbation   85 (of  132): O     1 Y at q=( 0.000, 0.000, 0.000):  43725.52s
 Perturbation   86 (of  132): O     3 Y at q=( 0.000, 0.000, 0.000):  44327.42s

Writing analysis data to phonon.castep_bin

Writing model to phonon.check
 Perturbation   87 (of  132): O     5 Y at q=( 0.000, 0.000, 0.000):  44944.32s
 Perturbation   88 (of  132): O     7 Y at q=( 0.000, 0.000, 0.000):  45540.51s
 Perturbation   89 (of  132): H     1 Z at q=( 0.000, 0.000, 0.000):  46254.99s

Writing analysis data to phonon.castep_bin

Writing model to phonon.check
 Perturbation   90 (of  132): H     3 Z at q=( 0.000, 0.000, 0.000):  46752.54s
 Perturbation   91 (of  132): H     5 Z at q=( 0.000, 0.000, 0.000):  47210.27s
 Perturbation   92 (of  132): H     7 Z at q=( 0.000, 0.000, 0.000):  47673.92s
 Perturbation   93 (of  132): H     9 Z at q=( 0.000, 0.000, 0.000):  48124.94s

Writing analysis data to phonon.castep_bin

Writing model to phonon.check
 Perturbation   94 (of  132): H    11 Z at q=( 0.000, 0.000, 0.000):  48601.58s
 Perturbation   95 (of  132): H    13 Z at q=( 0.000, 0.000, 0.000):  49035.24s
 Perturbation   96 (of  132): H    15 Z at q=( 0.000, 0.000, 0.000):  49501.13s
 Perturbation   97 (of  132): H    17 Z at q=( 0.000, 0.000, 0.000):  49935.29s
 Perturbation   98 (of  132): H    19 Z at q=( 0.000, 0.000, 0.000):  50361.11s

Writing analysis data to phonon.castep_bin

Writing model to phonon.check
 Perturbation   99 (of  132): H    21 Z at q=( 0.000, 0.000, 0.000):  50815.92s
 Perturbation  100 (of  132): H    23 Z at q=( 0.000, 0.000, 0.000):  51244.29s
 Perturbation  101 (of  132): H    25 Z at q=( 0.000, 0.000, 0.000):  51673.08s
 Perturbation  102 (of  132): H    27 Z at q=( 0.000, 0.000, 0.000):  52100.88s
 Perturbation  103 (of  132): H    29 Z at q=( 0.000, 0.000, 0.000):  52562.79s

Writing analysis data to phonon.castep_bin

Writing model to phonon.check
 Perturbation  104 (of  132): H    31 Z at q=( 0.000, 0.000, 0.000):  53028.28s
 Perturbation  105 (of  132): H    33 Z at q=( 0.000, 0.000, 0.000):  53446.94s
 Perturbation  106 (of  132): H    35 Z at q=( 0.000, 0.000, 0.000):  53859.42s
 Perturbation  107 (of  132): H    37 Z at q=( 0.000, 0.000, 0.000):  54283.71s
 Perturbation  108 (of  132): H    39 Z at q=( 0.000, 0.000, 0.000):  54680.25s

Writing analysis data to phonon.castep_bin

Writing model to phonon.check
 Perturbation  109 (of  132): H    41 Z at q=( 0.000, 0.000, 0.000):  55096.68s
 Perturbation  110 (of  132): H    43 Z at q=( 0.000, 0.000, 0.000):  55491.33s
 Perturbation  111 (of  132): H    45 Z at q=( 0.000, 0.000, 0.000):  55882.95s
 Perturbation  112 (of  132): H    47 Z at q=( 0.000, 0.000, 0.000):  56269.25s
 Perturbation  113 (of  132): H    49 Z at q=( 0.000, 0.000, 0.000):  56697.09s

Writing analysis data to phonon.castep_bin

Writing model to phonon.check
 Perturbation  114 (of  132): H    51 Z at q=( 0.000, 0.000, 0.000):  57111.21s
 Perturbation  115 (of  132): C     1 Z at q=( 0.000, 0.000, 0.000):  57533.00s
 Perturbation  116 (of  132): C     3 Z at q=( 0.000, 0.000, 0.000):  58140.79s
 Perturbation  117 (of  132): C     5 Z at q=( 0.000, 0.000, 0.000):  58699.45s

Writing analysis data to phonon.castep_bin

Writing model to phonon.check
 Perturbation  118 (of  132): C     7 Z at q=( 0.000, 0.000, 0.000):  59274.64s
 Perturbation  119 (of  132): C     9 Z at q=( 0.000, 0.000, 0.000):  59774.33s
 Perturbation  120 (of  132): C    11 Z at q=( 0.000, 0.000, 0.000):  60301.03s
 Perturbation  121 (of  132): C    13 Z at q=( 0.000, 0.000, 0.000):  60809.49s

Writing analysis data to phonon.castep_bin

Writing model to phonon.check
 Perturbation  122 (of  132): C    15 Z at q=( 0.000, 0.000, 0.000):  61425.34s
 Perturbation  123 (of  132): C    17 Z at q=( 0.000, 0.000, 0.000):  61942.43s
 Perturbation  124 (of  132): C    19 Z at q=( 0.000, 0.000, 0.000):  62461.37s
 Perturbation  125 (of  132): C    21 Z at q=( 0.000, 0.000, 0.000):  62959.71s

Writing analysis data to phonon.castep_bin

Writing model to phonon.check
 Perturbation  126 (of  132): C    23 Z at q=( 0.000, 0.000, 0.000):  63465.23s
 Perturbation  127 (of  132): N     1 Z at q=( 0.000, 0.000, 0.000):  63953.25s
 Perturbation  128 (of  132): N     3 Z at q=( 0.000, 0.000, 0.000):  64483.69s
 Perturbation  129 (of  132): O     1 Z at q=( 0.000, 0.000, 0.000):  64996.94s

Writing analysis data to phonon.castep_bin

Writing model to phonon.check
 Perturbation  130 (of  132): O     3 Z at q=( 0.000, 0.000, 0.000):  65529.91s
 Perturbation  131 (of  132): O     5 Z at q=( 0.000, 0.000, 0.000):  65915.82s
 Perturbation  132 (of  132): O     7 Z at q=( 0.000, 0.000, 0.000):  66310.64s

 Phonon calculation: q-point   1 (of    1) ( 0.000, 0.000, 0.000):    66778.16s
 -------------------------------------------------------------------------------
 
 ==============================================================================
 +                           Vibrational Frequencies                          +
 +                           -----------------------                          +
 +                                                                            +
 + Performing frequency calculation at  1 wavevector  (q-pt )                 +
 + ========================================================================== +
 +                                                                            +
 + -------------------------------------------------------------------------- +
 +  q-pt=    1 (  0.000000  0.000000  0.000000)     1.0000000000              +
 + -------------------------------------------------------------------------- +
 +  Acoustic sum rule correction <  18.373147 cm-1 applied                    +
 +     N      Frequency irrep.    ir intensity active            raman active + 
 +                (cm-1)         ((D/A)**2/amu)                               + 
 +                                                                            +
 +     1      -0.071341   a          0.0000000  N                       N     + 
 +     2      -0.059284   b          0.0000000  N                       N     + 
 +     3      -0.040800   b          0.0000000  N                       N     + 
 +     4      32.812187   b          0.0005564  Y                       Y     + 
 +     5      39.727582   a          0.0000002  Y                       Y     + 
 +     6      49.420407   b          0.0525608  Y                       Y     + 
 +     7      52.121677   a          0.0005265  Y                       Y     + 
 +     8      54.150080   a          0.0033434  Y                       Y     + 
 +     9      59.586774   a          0.1229826  Y                       Y     + 
 +    10      62.048341   b          0.0209052  Y                       Y     + 
 +    11      69.906295   a          0.0356461  Y                       Y     + 
 +    12      73.194680   b          0.0022681  Y                       Y     + 
 +    13      75.999009   b          0.1222794  Y                       Y     + 
 +    14      76.252546   a          0.0123512  Y                       Y     + 
 +    15      80.485099   b          0.0233061  Y                       Y     + 
 +    16      87.535137   a          0.0169599  Y                       Y     + 
 +    17      89.310854   b          0.0587052  Y                       Y     + 
 +    18      90.492137   a          0.0234802  Y                       Y     + 
 +    19      94.505029   a          0.0152460  Y                       Y     + 
 +    20      94.789124   b          0.1619223  Y                       Y     + 
 +    21     109.125887   b          0.0938989  Y                       Y     + 
 +    22     109.949111   a          0.0967638  Y                       Y     + 
 +    23     118.298898   a          0.0098286  Y                       Y     + 
 +    24     120.558825   b          0.0376362  Y                       Y     + 
 +    25     126.718540   a          0.1175740  Y                       Y     + 
 +    26     132.781493   b          0.1537303  Y                       Y     + 
 +    27     141.553067   a          0.3532055  Y                       Y     + 
 +    28     143.295411   b          0.1938987  Y                       Y     + 
 +    29     149.508241   a          0.3943459  Y                       Y     + 
 +    30     152.382379   b          0.7814642  Y                       Y     + 
 +    31     153.422323   a          0.7278498  Y                       Y     + 
 +    32     162.530547   b          0.0219320  Y                       Y     + 
 +    33     168.766126   b          1.7754171  Y                       Y     + 
 +    34     175.737411   a          2.2188936  Y                       Y     + 
 +    35     186.907087   b          0.0180426  Y                       Y     + 
 +    36     191.991317   a          1.8163641  Y                       Y     + 
 +    37     199.791988   a          0.2297477  Y                       Y     + 
 +    38     207.282673   b          0.2254159  Y                       Y     + 
 +    39     210.329937   a          0.4363816  Y                       Y     + 
 +    40     217.325557   a          0.6583285  Y                       Y     + 
 +    41     219.544505   b          2.1784935  Y                       Y     + 
 +    42     221.897508   b          0.0668599  Y                       Y     + 
 +    43     222.398522   a          1.2047129  Y                       Y     + 
 +    44     222.934319   b          1.2280793  Y                       Y     + 
 +    45     232.081217   a          0.0257149  Y                       Y     + 
 +    46     235.139346   b          1.8263146  Y                       Y     + 
 +    47     247.087552   a          0.0852853  Y                       Y     + 
 +    48     249.354273   b          0.5924487  Y                       Y     + 
 +    49     272.912698   b          0.0729890  Y                       Y     + 
 +    50     274.314197   a          0.0564251  Y                       Y     + 
 +    51     279.655072   a          0.1337972  Y                       Y     + 
 +    52     287.772666   b          0.3761463  Y                       Y     + 
 +    53     300.687426   b          1.0329394  Y                       Y     + 
 +    54     301.908601   a          0.2978809  Y                       Y     + 
 +    55     303.124842   b          1.1318423  Y                       Y     + 
 +    56     303.130350   a          0.0131542  Y                       Y     + 
 +    57     343.719182   a          0.1614392  Y                       Y     + 
 +    58     344.548776   b          1.0314578  Y                       Y     + 
 +    59     346.527119   b          1.9944597  Y                       Y     + 
 +    60     347.529341   a          0.0248752  Y                       Y     + 
 +    61     364.096035   a          0.1117091  Y                       Y     + 
 +    62     370.723729   b          1.4451602  Y                       Y     + 
 +    63     388.485905   a          0.9250410  Y                       Y     + 
 +    64     393.690457   b          4.7739492  Y                       Y     + 
 +    65     425.631441   a          0.0006260  Y                       Y     + 
 +    66     425.927965   b          1.0083566  Y                       Y     + 
 +    67     441.071985   a          1.2588627  Y                       Y     + 
 +    68     442.330560   b          0.9626985  Y                       Y     + 
 +    69     447.450536   a          0.2828120  Y                       Y     + 
 +    70     449.350865   b          1.2223784  Y                       Y     + 
 +    71     482.243416   b          0.4886277  Y                       Y     + 
 +    72     483.091611   a          0.3894108  Y                       Y     + 
 +    73     536.254337   b          2.5322086  Y                       Y     + 
 +    74     536.453138   a          1.3677705  Y                       Y     + 
 +    75     555.300454   a          0.6227155  Y                       Y     + 
 +    76     558.581793   b          0.2554584  Y                       Y     + 
 +    77     561.935350   b          0.3948302  Y                       Y     + 
 +    78     565.649412   a          1.0019208  Y                       Y     + 
 +    79     566.608134   a          0.0094826  Y                       Y     + 
 +    80     566.975621   b          0.3383701  Y                       Y     + 
 +    81     678.577976   a          0.3246722  Y                       Y     + 
 +    82     680.703973   b          0.6823958  Y                       Y     + 
 +    83     719.661887   a          0.0123919  Y                       Y     + 
 +    84     721.352618   b          1.9577000  Y                       Y     + 
 +    85     749.808156   b          0.3001791  Y                       Y     + 
 +    86     749.815911   a          0.3631228  Y                       Y     + 
 +    87     764.922530   b          0.6922171  Y                       Y     + 
 +    88     765.739759   a          0.0172056  Y                       Y     + 
 +    89     779.047796   a          0.2256087  Y                       Y     + 
 +    90     779.517882   b          0.3693530  Y                       Y     + 
 +    91     802.185585   b          0.4675193  Y                       Y     + 
 +    92     802.707285   a          0.0659925  Y                       Y     + 
 +    93     827.308626   a          0.0872885  Y                       Y     + 
 +    94     828.641824   b          0.3383233  Y                       Y     + 
 +    95     849.725728   a          0.0328402  Y                       Y     + 
 +    96     850.432022   b          0.2481099  Y                       Y     + 
 +    97     874.259992   b          0.8954425  Y                       Y     + 
 +    98     874.307950   a          0.1205757  Y                       Y     + 
 +    99     878.067229   a          0.2509460  Y                       Y     + 
 +   100     878.805678   b          0.2983725  Y                       Y     + 
 +   101     915.204769   a          0.6102276  Y                       Y     + 
 +   102     915.866043   b          0.7465015  Y                       Y     + 
 +   103     924.934160   b          0.5832508  Y                       Y     + 
 +   104     925.316320   a          0.2527127  Y                       Y     + 
 +   105     958.385904   a          1.1929131  Y                       Y     + 
 +   106     959.904204   b          0.0795988  Y                       Y     + 
 +   107     964.894491   a          0.0383390  Y                       Y     + 
 +   108     966.469072   b          0.2638100  Y                       Y     + 
 +   109     989.635894   b          0.4203441  Y                       Y     + 
 +   110     990.354556   a          0.2791128  Y                       Y     + 
 +   111     991.662887   a          0.0261019  Y                       Y     + 
 +   112     991.821713   b          0.4282805  Y                       Y     + 
 +   113    1021.208670   b          0.1399507  Y                       Y     + 
 +   114    1021.480320   a          0.5411204  Y                       Y     + 
 +   115    1034.117986   a          0.1663620  Y                       Y     + 
 +   116    1034.424033   b          0.3022329  Y                       Y     + 
 +   117    1040.468115   a          0.0695415  Y                       Y     + 
 +   118    1040.651114   b          0.4613765  Y                       Y     + 
 +   119    1050.309966   a          0.5831570  Y                       Y     + 
 +   120    1050.884073   b          0.1069747  Y                       Y     + 
 +   121    1070.402008   a          0.0006215  Y                       Y     + 
 +   122    1071.873349   b          0.4858652  Y                       Y     + 
 +   123    1089.785085   b          1.8445480  Y                       Y     + 
 +   124    1090.204468   a          0.2748758  Y                       Y     + 
 +   125    1092.689407   a          0.0116765  Y                       Y     + 
 +   126    1094.647875   b          0.4987172  Y                       Y     + 
 +   127    1138.958370   a          0.0020340  Y                       Y     + 
 +   128    1140.251665   b          0.3813642  Y                       Y     + 
 +   129    1150.159967   a          0.7400652  Y                       Y     + 
 +   130    1152.050087   b          1.3646899  Y                       Y     + 
 +   131    1153.645018   a          0.0863905  Y                       Y     + 
 +   132    1154.139138   b          0.1240484  Y                       Y     + 
 +   133    1166.629549   b          2.6550099  Y                       Y     + 
 +   134    1167.074732   a          0.0225510  Y                       Y     + 
 +   135    1173.516228   b          0.0718441  Y                       Y     + 
 +   136    1173.622380   a          0.0658473  Y                       Y     + 
 +   137    1191.070407   b          1.8645825  Y                       Y     + 
 +   138    1191.132196   a          1.2020381  Y                       Y     + 
 +   139    1200.819705   a          0.0060607  Y                       Y     + 
 +   140    1204.075809   b          0.2354460  Y                       Y     + 
 +   141    1251.582517   a          0.1387792  Y                       Y     + 
 +   142    1253.220768   b          0.2911013  Y                       Y     + 
 +   143    1253.314282   a          0.0023141  Y                       Y     + 
 +   144    1254.355241   b          0.9687351  Y                       Y     + 
 +   145    1276.325100   a          1.2676938  Y                       Y     + 
 +   146    1276.754541   b          0.0073520  Y                       Y     + 
 +   147    1291.405265   a          0.2084604  Y                       Y     + 
 +   148    1291.597235   b          0.0845929  Y                       Y     + 
 +   149    1307.558732   b          3.6110298  Y                       Y     + 
 +   150    1308.970597   a          3.5225524  Y                       Y     + 
 +   151    1325.187068   a          0.5490084  Y                       Y     + 
 +   152    1325.768751   b          0.3690502  Y                       Y     + 
 +   153    1330.095666   b          0.7862214  Y                       Y     + 
 +   154    1330.738554   a          3.5683936  Y                       Y     + 
 +   155    1341.796634   a          0.0089213  Y                       Y     + 
 +   156    1342.278988   b          1.3788497  Y                       Y     + 
 +   157    1343.930430   b         11.0290449  Y                       Y     + 
 +   158    1344.410445   a          0.8707595  Y                       Y     + 
 +   159    1348.470317   b          0.1660466  Y                       Y     + 
 +   160    1349.926712   a          0.0016882  Y                       Y     + 
 +   161    1355.447454   b          0.1928953  Y                       Y     + 
 +   162    1355.745991   a          1.0668923  Y                       Y     + 
 +   163    1363.634881   b          0.1352389  Y                       Y     + 
 +   164    1364.400243   a          0.1849453  Y                       Y     + 
 +   165    1372.012117   a          0.0941345  Y                       Y     + 
 +   166    1373.740078   b          0.4600821  Y                       Y     + 
 +   167    1377.284710   a          0.2891575  Y                       Y     + 
 +   168    1379.396829   b          1.4690164  Y                       Y     + 
 +   169    1380.184402   a          0.0932324  Y                       Y     + 
 +   170    1381.742504   b          7.0527751  Y                       Y     + 
 +   171    1383.970300   a          4.6000268  Y                       Y     + 
 +   172    1385.129519   b          0.1293767  Y                       Y     + 
 +   173    1386.410815   b          0.4596762  Y                       Y     + 
 +   174    1387.224412   a          0.2573067  Y                       Y     + 
 +   175    1400.290622   b          7.1374525  Y                       Y     + 
 +   176    1400.954153   a          0.0000240  Y                       Y     + 
 +   177    1444.172701   a          0.0009607  Y                       Y     + 
 +   178    1444.393376   b          0.3998519  Y                       Y     + 
 +   179    1449.523463   a          0.9208149  Y                       Y     + 
 +   180    1450.915951   b          0.3631869  Y                       Y     + 
 +   181    1452.268937   a          0.0836727  Y                       Y     + 
 +   182    1454.376827   a          0.0004313  Y                       Y     + 
 +   183    1456.236677   b          0.1664756  Y                       Y     + 
 +   184    1458.974083   b          0.1273826  Y                       Y     + 
 +   185    1463.665926   a          0.0626548  Y                       Y     + 
 +   186    1464.074377   b          0.1947761  Y                       Y     + 
 +   187    1466.387151   a          0.0022798  Y                       Y     + 
 +   188    1468.564899   b          1.1150970  Y                       Y     + 
 +   189    1470.141749   a          0.1408439  Y                       Y     + 
 +   190    1473.271232   b          0.6660465  Y                       Y     + 
 +   191    1473.935202   a          1.7267231  Y                       Y     + 
 +   192    1474.690170   a          2.3022517  Y                       Y     + 
 +   193    1475.791277   b          0.3031012  Y                       Y     + 
 +   194    1478.364076   b          0.0365931  Y                       Y     + 
 +   195    1482.828061   a          0.0923809  Y                       Y     + 
 +   196    1484.060160   b          0.0007724  Y                       Y     + 
 +   197    1505.407742   b          2.7156383  Y                       Y     + 
 +   198    1511.534546   a         18.3057416  Y                       Y     + 
 +   199    1520.146049   b          9.8368247  Y                       Y     + 
 +   200    1521.130128   a         37.5495916  Y                       Y     + 
 +   201    1565.927555   a         35.9905478  Y                       Y     + 
 +   202    1568.069551   a          0.0077995  Y                       Y     + 
 +   203    1568.427529   b         11.8964839  Y                       Y     + 
 +   204    1597.406530   b          2.7071848  Y                       Y     + 
 +   205    1617.960717   b          5.4774403  Y                       Y     + 
 +   206    1629.176008   a          1.9882814  Y                       Y     + 
 +   207    1632.495813   b          1.1291553  Y                       Y     + 
 +   208    1634.442295   a          0.0350170  Y                       Y     + 
 +   209    1645.368004   b          7.1708148  Y                       Y     + 
 +   210    1650.930904   a          0.7350032  Y                       Y     + 
 +   211    1667.576291   b          0.3968951  Y                       Y     + 
 +   212    1668.952871   a          0.1128566  Y                       Y     + 
 +   213    2688.196879   a         10.2520424  Y                       Y     + 
 +   214    2715.522308   b        115.4905763  Y                       Y     + 
 +   215    2927.705899   a         12.6597847  Y                       Y     + 
 +   216    2948.853638   b          3.9822893  Y                       Y     + 
 +   217    2948.985522   a          0.6731031  Y                       Y     + 
 +   218    2952.090315   b          2.5837328  Y                       Y     + 
 +   219    2952.232941   a          0.0176893  Y                       Y     + 
 +   220    2954.644373   b         33.4221196  Y                       Y     + 
 +   221    2967.643448   a          1.3452004  Y                       Y     + 
 +   222    2971.639068   b         17.8774791  Y                       Y     + 
 +   223    2972.579403   a          0.1758588  Y                       Y     + 
 +   224    2973.419295   b         14.9718636  Y                       Y     + 
 +   225    2974.184232   a          0.5064087  Y                       Y     + 
 +   226    2976.659577   b         23.5388240  Y                       Y     + 
 +   227    2978.489300   b          1.0420712  Y                       Y     + 
 +   228    2978.644425   a          0.0084319  Y                       Y     + 
 +   229    2980.036478   b          0.1093839  Y                       Y     + 
 +   230    2980.088495   a          0.0034041  Y                       Y     + 
 +   231    2980.970027   a          2.1773360  Y                       Y     + 
 +   232    2982.271005   b          6.3821118  Y                       Y     + 
 +   233    2989.010424   a         49.0179052  Y                       Y     + 
 +   234    2990.434554   b         36.9599403  Y                       Y     + 
 +   235    2994.745851   a          2.7975695  Y                       Y     + 
 +   236    2994.746206   b          0.9024879  Y                       Y     + 
 +   237    3016.998317   a          2.1730693  Y                       Y     + 
 +   238    3017.102349   b          0.6080540  Y                       Y     + 
 +   239    3024.126775   a          4.0760771  Y                       Y     + 
 +   240    3024.372207   b          2.9977941  Y                       Y     + 
 +   241    3024.466550   a          0.1831814  Y                       Y     + 
 +   242    3024.755063   b          0.0126930  Y                       Y     + 
 +   243    3030.194115   a          2.9955724  Y                       Y     + 
 +   244    3030.243519   b          1.4909430  Y                       Y     + 
 +   245    3042.067028   a          2.0360455  Y                       Y     + 
 +   246    3043.665428   b          0.8686831  Y                       Y     + 
 +   247    3044.930051   b          2.1569452  Y                       Y     + 
 +   248    3045.681739   a          0.4992685  Y                       Y     + 
 +   249    3049.012516   a          2.6166733  Y                       Y     + 
 +   250    3049.033434   b          0.8073426  Y                       Y     + 
 +   251    3051.318670   a          0.7096172  Y                       Y     + 
 +   252    3051.923724   b          0.0125035  Y                       Y     + 
 +   253    3052.091904   a          3.6515969  Y                       Y     + 
 +   254    3052.224091   b          1.5686571  Y                       Y     + 
 +   255    3058.305716   a         17.7698681  Y                       Y     + 
 +   256    3059.071031   b          3.2705939  Y                       Y     + 
 +   257    3067.415307   a          0.0787410  Y                       Y     + 
 +   258    3067.530951   b          0.6178558  Y                       Y     + 
 +   259    3067.962276   b          0.8088640  Y                       Y     + 
 +   260    3068.128446   a          0.8262857  Y                       Y     + 
 +   261    3081.223612   b          0.5957785  Y                       Y     + 
 +   262    3081.312092   a          0.1047063  Y                       Y     + 
 +   263    3210.665775   a          5.2273581  Y                       Y     + 
 +   264    3221.298499   b         29.0688060  Y                       Y     + 
 + .......................................................................... +
 +        Character table from group theory analysis of eigenvectors          +
 +                           Point Group =   4, C2                            +
 + .......................................................................... +
 +  Rep  Mul |    E   2                                                       +
 +           | --------                                                       +
 + a A   132 |    1   1                                                       +
 + b B   132 |    1  -1                                                       +
 + -------------------------------------------------------------------------- +
 +  q-pt=    1 (  0.000000  0.000000  0.000000)     1.0000000000              +
 +  q->0 along (  0.000000  0.000000  1.000000)                               +
 + -------------------------------------------------------------------------- +
 +  Acoustic sum rule correction <  18.373147 cm-1 applied                    +
 +     N      Frequency irrep.    ir intensity active            raman active + 
 +                (cm-1)         ((D/A)**2/amu)                               + 
 +                                                                            +
 +     1      -0.071341   a          0.0000000  N                       N     + 
 +     2      -0.055155   b          0.0000000  N                       N     + 
 +     3       0.942841   b          0.0000000  N                       N     + 
 +     4      32.819198   b          0.0003729  Y                       Y     + 
 +     5      39.727582   a          0.0000002  Y                       Y     + 
 +     6      49.779687   b          0.0398291  Y                       Y     + 
 +     7      52.121677   a          0.0005265  Y                       Y     + 
 +     8      54.150080   a          0.0033434  Y                       Y     + 
 +     9      59.586774   a          0.1229826  Y                       Y     + 
 +    10      62.068076   b          0.0205602  Y                       Y     + 
 +    11      69.906295   a          0.0356461  Y                       Y     + 
 +    12      73.196313   b          0.0023263  Y                       Y     + 
 +    13      76.138803   b          0.1116322  Y                       Y     + 
 +    14      76.252546   a          0.0123512  Y                       Y     + 
 +    15      80.633464   b          0.0145157  Y                       Y     + 
 +    16      87.535137   a          0.0169599  Y                       Y     + 
 +    17      89.634713   b          0.0362461  Y                       Y     + 
 +    18      90.492137   a          0.0234802  Y                       Y     + 
 +    19      94.505029   a          0.0152460  Y                       Y     + 
 +    20      95.042983   b          0.1582154  Y                       Y     + 
 +    21     109.127454   b          0.0929938  Y                       Y     + 
 +    22     109.949111   a          0.0967638  Y                       Y     + 
 +    23     118.298898   a          0.0098286  Y                       Y     + 
 +    24     120.702984   b          0.0253339  Y                       Y     + 
 +    25     126.718540   a          0.1175740  Y                       Y     + 
 +    26     133.248170   b          0.0954855  Y                       Y     + 
 +    27     141.553067   a          0.3532055  Y                       Y     + 
 +    28     143.826161   b          0.1458567  Y                       Y     + 
 +    29     149.508241   a          0.3943459  Y                       Y     + 
 +    30     152.424896   b          0.7882727  Y                       Y     + 
 +    31     153.422323   a          0.7278498  Y                       Y     + 
 +    32     162.592429   b          0.0177775  Y                       Y     + 
 +    33     168.957577   b          1.7161082  Y                       Y     + 
 +    34     175.737411   a          2.2188936  Y                       Y     + 
 +    35     186.935737   b          0.0130210  Y                       Y     + 
 +    36     191.991317   a          1.8163641  Y                       Y     + 
 +    37     199.791988   a          0.2297477  Y                       Y     + 
 +    38     207.504941   b          0.1132653  Y                       Y     + 
 +    39     210.329937   a          0.4363816  Y                       Y     + 
 +    40     217.325557   a          0.6583285  Y                       Y     + 
 +    41     221.895821   b          0.0682579  Y                       Y     + 
 +    42     222.375828   b          0.4092454  Y                       Y     + 
 +    43     222.398522   a          1.2047129  Y                       Y     + 
 +    44     224.037810   b          1.6922527  Y                       Y     + 
 +    45     232.081217   a          0.0257149  Y                       Y     + 
 +    46     240.718927   b          2.4963371  Y                       Y     + 
 +    47     247.087552   a          0.0852853  Y                       Y     + 
 +    48     249.537439   b          0.7977876  Y                       Y     + 
 +    49     273.040587   b          0.0655322  Y                       Y     + 
 +    50     274.314197   a          0.0564251  Y                       Y     + 
 +    51     279.655072   a          0.1337972  Y                       Y     + 
 +    52     288.562478   b          0.3420185  Y                       Y     + 
 +    53     301.337713   b          1.2122714  Y                       Y     + 
 +    54     301.908601   a          0.2978809  Y                       Y     + 
 +    55     303.130350   a          0.0131542  Y                       Y     + 
 +    56     303.505280   b          0.9798852  Y                       Y     + 
 +    57     343.719182   a          0.1614392  Y                       Y     + 
 +    58     345.525811   b          1.6980104  Y                       Y     + 
 +    59     347.273881   b          1.2569965  Y                       Y     + 
 +    60     347.529341   a          0.0248752  Y                       Y     + 
 +    61     364.096035   a          0.1117091  Y                       Y     + 
 +    62     371.201750   b          1.2379726  Y                       Y     + 
 +    63     388.485905   a          0.9250410  Y                       Y     + 
 +    64     395.835367   b          4.8890150  Y                       Y     + 
 +    65     425.631441   a          0.0006260  Y                       Y     + 
 +    66     427.118823   b          1.0613980  Y                       Y     + 
 +    67     441.071985   a          1.2588627  Y                       Y     + 
 +    68     442.695398   b          0.9996594  Y                       Y     + 
 +    69     447.450536   a          0.2828120  Y                       Y     + 
 +    70     449.421442   b          1.2965486  Y                       Y     + 
 +    71     482.430216   b          0.4790224  Y                       Y     + 
 +    72     483.091611   a          0.3894108  Y                       Y     + 
 +    73     536.453138   a          1.3677705  Y                       Y     + 
 +    74     536.751484   b          2.5239314  Y                       Y     + 
 +    75     555.300454   a          0.6227155  Y                       Y     + 
 +    76     558.733310   b          0.2382717  Y                       Y     + 
 +    77     562.282200   b          0.4817844  Y                       Y     + 
 +    78     565.649412   a          1.0019208  Y                       Y     + 
 +    79     566.608134   a          0.0094826  Y                       Y     + 
 +    80     567.028826   b          0.3229835  Y                       Y     + 
 +    81     678.577976   a          0.3246722  Y                       Y     + 
 +    82     680.705772   b          0.6798019  Y                       Y     + 
 +    83     719.661887   a          0.0123919  Y                       Y     + 
 +    84     721.458904   b          1.9308739  Y                       Y     + 
 +    85     749.815911   a          0.3631228  Y                       Y     + 
 +    86     749.893959   b          0.2986163  Y                       Y     + 
 +    87     764.946626   b          0.6854174  Y                       Y     + 
 +    88     765.739759   a          0.0172056  Y                       Y     + 
 +    89     779.047796   a          0.2256087  Y                       Y     + 
 +    90     779.642243   b          0.3668698  Y                       Y     + 
 +    91     802.374013   b          0.4411135  Y                       Y     + 
 +    92     802.707285   a          0.0659925  Y                       Y     + 
 +    93     827.308626   a          0.0872885  Y                       Y     + 
 +    94     828.874366   b          0.3238957  Y                       Y     + 
 +    95     849.725728   a          0.0328402  Y                       Y     + 
 +    96     850.616584   b          0.2366019  Y                       Y     + 
 +    97     874.282495   b          0.9084136  Y                       Y     + 
 +    98     874.307950   a          0.1205757  Y                       Y     + 
 +    99     878.067229   a          0.2509460  Y                       Y     + 
 +   100     878.937762   b          0.2767415  Y                       Y     + 
 +   101     915.204769   a          0.6102276  Y                       Y     + 
 +   102     915.871248   b          0.7512444  Y                       Y     + 
 +   103     924.943946   b          0.5759581  Y                       Y     + 
 +   104     925.316320   a          0.2527127  Y                       Y     + 
 +   105     958.385904   a          1.1929131  Y                       Y     + 
 +   106     959.940164   b          0.0755815  Y                       Y     + 
 +   107     964.894491   a          0.0383390  Y                       Y     + 
 +   108     966.469261   b          0.2643706  Y                       Y     + 
 +   109     989.866804   b          0.3046952  Y                       Y     + 
 +   110     990.354556   a          0.2791128  Y                       Y     + 
 +   111     991.662887   a          0.0261019  Y                       Y     + 
 +   112     992.068752   b          0.4730835  Y                       Y     + 
 +   113    1021.286758   b          0.1274584  Y                       Y     + 
 +   114    1021.480320   a          0.5411204  Y                       Y     + 
 +   115    1034.117986   a          0.1663620  Y                       Y     + 
 +   116    1034.531750   b          0.2831860  Y                       Y     + 
 +   117    1040.468115   a          0.0695415  Y                       Y     + 
 +   118    1040.877471   b          0.4582784  Y                       Y     + 
 +   119    1050.309966   a          0.5831570  Y                       Y     + 
 +   120    1050.884246   b          0.1077868  Y                       Y     + 
 +   121    1070.402008   a          0.0006215  Y                       Y     + 
 +   122    1072.123798   b          0.3964210  Y                       Y     + 
 +   123    1090.204468   a          0.2748758  Y                       Y     + 
 +   124    1090.572200   b          1.5144907  Y                       Y     + 
 +   125    1092.689407   a          0.0116765  Y                       Y     + 
 +   126    1094.983248   b          0.6493751  Y                       Y     + 
 +   127    1138.958370   a          0.0020340  Y                       Y     + 
 +   128    1140.251886   b          0.3837875  Y                       Y     + 
 +   129    1150.159967   a          0.7400652  Y                       Y     + 
 +   130    1152.278240   b          1.1626290  Y                       Y     + 
 +   131    1153.645018   a          0.0863905  Y                       Y     + 
 +   132    1154.153743   b          0.1317246  Y                       Y     + 
 +   133    1167.074732   a          0.0225510  Y                       Y     + 
 +   134    1167.250225   b          2.4739192  Y                       Y     + 
 +   135    1173.529460   b          0.0776328  Y                       Y     + 
 +   136    1173.622380   a          0.0658473  Y                       Y     + 
 +   137    1191.132196   a          1.2020381  Y                       Y     + 
 +   138    1191.652574   b          1.8281489  Y                       Y     + 
 +   139    1200.819705   a          0.0060607  Y                       Y     + 
 +   140    1204.200821   b          0.2472527  Y                       Y     + 
 +   141    1251.582517   a          0.1387792  Y                       Y     + 
 +   142    1253.314282   a          0.0023141  Y                       Y     + 
 +   143    1253.338336   b          0.2365533  Y                       Y     + 
 +   144    1254.381711   b          0.9724306  Y                       Y     + 
 +   145    1276.325100   a          1.2676938  Y                       Y     + 
 +   146    1276.756603   b          0.0064762  Y                       Y     + 
 +   147    1291.405265   a          0.2084604  Y                       Y     + 
 +   148    1291.615343   b          0.0716550  Y                       Y     + 
 +   149    1307.753627   b          3.3477243  Y                       Y     + 
 +   150    1308.970597   a          3.5225524  Y                       Y     + 
 +   151    1325.187068   a          0.5490084  Y                       Y     + 
 +   152    1325.768799   b          0.3675892  Y                       Y     + 
 +   153    1330.110543   b          0.8341831  Y                       Y     + 
[...]
          O 1 -- O 3              -0.21        2.20750
          O 2 -- O 4              -0.21        2.20750
         H 11 -- H 21             -0.04        2.20850
         H 12 -- H 22             -0.04        2.20850
          O 6 -- O 8              -0.20        2.21641
          O 5 -- O 7              -0.20        2.21641
         H 10 -- H 48             -0.03        2.22982
         H 9  -- H 47             -0.03        2.22982
         H 8  -- H 14             -0.02        2.25063
         H 7  -- H 13             -0.02        2.25063
         H 46 -- H 52             -0.03        2.25822
         H 45 -- H 51             -0.03        2.25822
         H 30 -- H 34             -0.05        2.26817
         H 29 -- H 33             -0.05        2.26817
         H 43 -- H 49             -0.03        2.27469
         H 44 -- H 50             -0.03        2.27469
         H 29 -- H 39             -0.02        2.29294
         H 30 -- H 40             -0.02        2.29294
         H 40 -- H 52             -0.03        2.30765
         H 39 -- H 51             -0.03        2.30765
         H 18 -- H 24             -0.03        2.32405
         H 17 -- H 23             -0.03        2.32405
         H 29 -- O 1              -0.01        2.33388
         H 30 -- O 2              -0.01        2.33388
         H 29 -- C 1              -0.09        2.33404
         H 30 -- C 2              -0.09        2.33404
         H 42 -- H 43             -0.03        2.33498
         H 41 -- H 44             -0.03        2.33498
         H 2  -- H 22             -0.02        2.34216
         H 1  -- H 21             -0.02        2.34216
         H 26 -- H 40             -0.03        2.34625
         H 25 -- H 39             -0.03        2.34625
         H 18 -- H 49             -0.03        2.34631
         H 17 -- H 50             -0.03        2.34631
         H 6  -- H 8              -0.03        2.35961
         H 5  -- H 7              -0.03        2.35961
         H 3  -- H 9              -0.01        2.35984
         H 4  -- H 10             -0.01        2.35984
         H 3  -- H 7              -0.04        2.36120
         H 4  -- H 8              -0.04        2.36120
         C 16 -- O 6              -0.22        2.36884
         C 15 -- O 5              -0.22        2.36884
         C 3  -- O 1              -0.22        2.37117
         C 4  -- O 2              -0.22        2.37117
         C 3  -- O 3              -0.21        2.37394
         C 4  -- O 4              -0.21        2.37394
         C 16 -- O 8              -0.21        2.37768
         C 15 -- O 7              -0.21        2.37768
         H 33 -- O 1               0.01        2.40356
         H 34 -- O 2               0.01        2.40356
         H 40 -- H 42             -0.04        2.40671
         H 39 -- H 41             -0.04        2.40671
         H 19 -- H 47             -0.02        2.40835
         H 20 -- H 48             -0.02        2.40835
         H 10 -- H 14             -0.05        2.41110
         H 9  -- H 13             -0.05        2.41110
         H 27 -- H 35             -0.01        2.41207
         H 28 -- H 36             -0.01        2.41207
         H 35 -- H 39             -0.04        2.42221
         H 36 -- H 40             -0.04        2.42221
         H 10 -- H 24             -0.04        2.42294
         H 9  -- H 23             -0.04        2.42294
         H 36 -- H 50             -0.04        2.43386
         H 35 -- H 49             -0.04        2.43386
         H 13 -- H 15             -0.04        2.44505
         H 14 -- H 16             -0.04        2.44505
         H 38 -- H 44             -0.05        2.44961
         H 37 -- H 43             -0.05        2.44961
         C 1  -- N 1              -0.15        2.45874
         C 2  -- N 2              -0.15        2.45874
         H 12 -- H 18             -0.04        2.47275
         H 11 -- H 17             -0.04        2.47275
         C 14 -- N 4              -0.13        2.47799
         C 13 -- N 3              -0.13        2.47799
         H 18 -- H 43             -0.02        2.48160
         H 17 -- H 44             -0.02        2.48160
         C 18 -- N 4              -0.13        2.48295
         C 17 -- N 3              -0.13        2.48295
         H 4  -- C 14             -0.06        2.48676
         H 3  -- C 13             -0.06        2.48676
         H 34 -- O 8              -0.02        2.49037
         H 33 -- O 7              -0.02        2.49037
         H 11 -- H 15             -0.03        2.49041
         H 12 -- H 16             -0.03        2.49041
         H 11 -- O 3               0.00        2.49051
         H 12 -- O 4               0.00        2.49051
         C 3  -- C 7              -0.15        2.49391
         C 4  -- C 8              -0.15        2.49391
         C 15 -- C 23             -0.16        2.49719
         C 16 -- C 24             -0.16        2.49719
         C 5  -- N 1              -0.13        2.50111
         C 6  -- N 2              -0.13        2.50111
         C 20 -- C 24             -0.16        2.50233
         C 19 -- C 23             -0.16        2.50233
         H 48 -- C 14             -0.03        2.50609
         H 47 -- C 13             -0.03        2.50609
         H 33 -- H 37             -0.01        2.50990
         H 34 -- H 38             -0.01        2.50990
         H 32 -- H 34             -0.01        2.51376
         H 31 -- H 33             -0.01        2.51376
         H 38 -- H 42             -0.02        2.51858
         H 37 -- H 41             -0.02        2.51858
         C 13 -- C 17             -0.14        2.51871
         C 14 -- C 18             -0.14        2.51871
         H 21 -- O 3               0.00        2.52321
         H 22 -- O 4               0.00        2.52321
         H 48 -- O 8              -0.01        2.52489
         H 47 -- O 7              -0.01        2.52489
         H 9  -- H 21             -0.02        2.52581
         H 10 -- H 22             -0.02        2.52581
         H 9  -- N 1              -0.05        2.52611
         H 10 -- N 2              -0.05        2.52611
         C 15 -- C 19             -0.15        2.52732
         C 16 -- C 20             -0.15        2.52732
         H 36 -- H 48             -0.03        2.52825
         H 35 -- H 47             -0.03        2.52825
         C 8  -- C 12             -0.16        2.52891
         C 7  -- C 11             -0.16        2.52891
         H 7  -- C 7              -0.07        2.52928
         H 8  -- C 8              -0.07        2.52928
         H 27 -- H 39             -0.01        2.53239
         H 28 -- H 40             -0.01        2.53239
         C 4  -- C 12             -0.16        2.53488
         C 3  -- C 11             -0.16        2.53488
         H 1  -- O 1               0.00        2.54106
         H 2  -- O 2               0.00        2.54106
         H 7  -- H 9              -0.02        2.54294
         H 8  -- H 10             -0.02        2.54294
         C 2  -- C 6              -0.13        2.54630
         C 1  -- C 5              -0.13        2.54630
         H 13 -- H 19             -0.03        2.54762
         H 14 -- H 20             -0.03        2.54762
         C 18 -- C 22             -0.14        2.55300
         C 17 -- C 21             -0.14        2.55300
         C 6  -- C 10             -0.14        2.55859
         C 5  -- C 9              -0.14        2.55859
         H 31 -- C 13             -0.05        2.55932
         H 32 -- C 14             -0.05        2.55932
         H 40 -- H 46             -0.02        2.56926
         H 39 -- H 45             -0.02        2.56926
         H 32 -- C 1              -0.05        2.59592
         H 31 -- C 2              -0.05        2.59592
         H 39 -- N 3              -0.03        2.59603
         H 40 -- N 4              -0.03        2.59603
         H 7  -- O 3              -0.02        2.59788
         H 8  -- O 4              -0.02        2.59788
         H 12 -- H 26              0.00        2.60089
         H 11 -- H 25              0.00        2.60089
         H 6  -- C 2              -0.04        2.60124
         H 5  -- C 1              -0.04        2.60124
         H 37 -- H 51             -0.00        2.60538
         H 38 -- H 52             -0.00        2.60538
         H 5  -- O 1              -0.00        2.61097
         H 6  -- O 2              -0.00        2.61097
         H 5  -- H 32             -0.01        2.62602
         H 6  -- H 31             -0.01        2.62602
         H 27 -- C 17             -0.05        2.62931
         H 28 -- C 18             -0.05        2.62931
         H 6  -- O 7               0.01        2.63027
         H 5  -- O 8               0.01        2.63027
         H 10 -- H 20              0.00        2.64383
         H 9  -- H 19              0.00        2.64383
          N 1 -- O 1              -0.04        2.64406
          N 2 -- O 2              -0.04        2.64406
         H 36 -- H 46             -0.00        2.64931
         H 35 -- H 45             -0.00        2.64931
         H 45 -- H 49             -0.01        2.66100
         H 46 -- H 50             -0.01        2.66100
         H 16 -- H 19             -0.02        2.66161
         H 15 -- H 20             -0.02        2.66161
         H 50 -- C 22             -0.04        2.66173
         H 49 -- C 21             -0.04        2.66173
         H 14 -- C 4              -0.05        2.66366
         H 13 -- C 3              -0.05        2.66366
         H 19 -- H 49             -0.01        2.66764
         H 20 -- H 50             -0.01        2.66764
         H 33 -- H 51             -0.00        2.66869
         H 34 -- H 52             -0.00        2.66869
         H 12 -- C 4              -0.04        2.68718
         H 11 -- C 3              -0.04        2.68718
         H 25 -- C 1              -0.02        2.68881
         H 26 -- C 2              -0.02        2.68881
         H 48 -- C 16             -0.04        2.68931
         H 47 -- C 15             -0.04        2.68931
         H 35 -- N 3              -0.03        2.69201
         H 36 -- N 4              -0.03        2.69201
         H 37 -- C 15             -0.05        2.69837
         H 38 -- C 16             -0.05        2.69837
         H 16 -- H 50             -0.01        2.69992
         H 15 -- H 49             -0.01        2.69992
         H 5  -- H 8              -0.01        2.70083
         H 6  -- H 7              -0.01        2.70083
         H 51 -- C 19             -0.07        2.71408
         H 52 -- C 20             -0.07        2.71408
         H 35 -- C 13             -0.04        2.71456
         H 36 -- C 14             -0.04        2.71456
         H 8  -- H 12             -0.01        2.71795
         H 7  -- H 11             -0.01        2.71795
         H 5  -- H 28             -0.01        2.71907
         H 6  -- H 27             -0.01        2.71907
         H 21 -- C 3              -0.04        2.72043
         H 22 -- C 4              -0.04        2.72043
         H 11 -- H 23             -0.01        2.72944
         H 12 -- H 24             -0.01        2.72944
         H 43 -- H 51             -0.01        2.73160
         H 44 -- H 52             -0.01        2.73160
         H 44 -- C 24             -0.03        2.73393
         H 43 -- C 23             -0.03        2.73393
         H 52 -- C 22             -0.05        2.73767
         H 51 -- C 21             -0.05        2.73767
         H 9  -- H 11              0.03        2.73877
         H 10 -- H 12              0.03        2.73877
         H 31 -- O 5              -0.00        2.74134
         H 32 -- O 6              -0.00        2.74134
          N 2 -- O 6              -0.13        2.74423
          N 1 -- O 5              -0.13        2.74423
         H 26 -- C 8              -0.04        2.74450
         H 25 -- C 7              -0.04        2.74450
         H 27 -- H 33              0.02        2.74647
         H 28 -- H 34              0.02        2.74647
         H 1  -- C 1              -0.06        2.74749
         H 2  -- C 2              -0.06        2.74749
          N 3 -- O 2              -0.11        2.75337
          N 4 -- O 1              -0.11        2.75337
         H 3  -- C 5              -0.03        2.75970
         H 4  -- C 6              -0.03        2.75970
         H 23 -- H 44             -0.01        2.77127
         H 24 -- H 43             -0.01        2.77127
         H 27 -- O 5               0.00        2.77244
         H 28 -- O 6               0.00        2.77244
         H 2  -- C 6              -0.03        2.77399
         H 1  -- C 5              -0.03        2.77399
         H 33 -- C 23             -0.03        2.77407
         H 34 -- C 24             -0.03        2.77407
         H 24 -- C 10             -0.03        2.77635
         H 23 -- C 9              -0.03        2.77635
         H 46 -- C 18             -0.04        2.77937
         H 45 -- C 17             -0.04        2.77937
         H 18 -- C 12             -0.03        2.77960
         H 17 -- C 11             -0.03        2.77960
          N 4 -- O 6              -0.02        2.78044
          N 3 -- O 5              -0.02        2.78044
         H 3  -- O 7              -0.01        2.78050
         H 4  -- O 8              -0.01        2.78050
         H 39 -- C 15             -0.03        2.78070
         H 40 -- C 16             -0.03        2.78070
         H 37 -- C 11             -0.04        2.78673
         H 38 -- C 12             -0.04        2.78673
         H 34 -- C 20             -0.04        2.78798
         H 33 -- C 19             -0.04        2.78798
         H 24 -- H 45             -0.01        2.79260
         H 23 -- H 46             -0.01        2.79260
         H 1  -- H 9              -0.01        2.79313
         H 2  -- H 10             -0.01        2.79313
         H 11 -- C 11             -0.07        2.79632
         H 12 -- C 12             -0.07        2.79632
         H 29 -- H 37             -0.00        2.79641
         H 30 -- H 38             -0.00        2.79641
         H 30 -- C 20             -0.02        2.79703
         H 29 -- C 19             -0.02        2.79703
         H 50 -- C 20             -0.03        2.79735
         H 49 -- C 19             -0.03        2.79735
         H 42 -- H 52             -0.01        2.79848
         H 41 -- H 51             -0.01        2.79848
         H 35 -- O 5               0.00        2.81107
         H 36 -- O 6               0.00        2.81107
         H 2  -- H 12             -0.01        2.81152
         H 1  -- H 11             -0.01        2.81152
         H 3  -- H 8              -0.01        2.81182
         H 4  -- H 7              -0.01        2.81182
         H 14 -- H 48             -0.01        2.81566
         H 13 -- H 47             -0.01        2.81566
         H 20 -- C 6              -0.03        2.81816
         H 19 -- C 5              -0.03        2.81816
         H 10 -- C 10             -0.03        2.81902
         H 9  -- C 9              -0.03        2.81902
         H 18 -- H 26             -0.01        2.82385
         H 17 -- H 25             -0.01        2.82385
         H 38 -- C 24             -0.03        2.82522
         H 37 -- C 23             -0.03        2.82522
         H 51 -- C 15             -0.03        2.82863
         H 52 -- C 16             -0.03        2.82863
         H 25 -- H 37             -0.01        2.83117
         H 26 -- H 38             -0.01        2.83117
         H 26 -- H 42             -0.01        2.83436
         H 25 -- H 41             -0.01        2.83436
         H 28 -- C 14             -0.04        2.84275
         H 27 -- C 13             -0.04        2.84275
         H 24 -- C 8              -0.03        2.84667
         H 23 -- C 7              -0.03        2.84667
         H 36 -- C 22             -0.03        2.84800
         H 35 -- C 21             -0.03        2.84800
          N 4 -- O 8              -0.08        2.85036
          N 3 -- O 7              -0.08        2.85036
          N 4 -- O 4              -0.09        2.86340
          N 3 -- O 3              -0.09        2.86340
         H 13 -- O 5               0.00        2.86504
         H 14 -- O 6               0.00        2.86504
         H 19 -- H 23             -0.00        2.87372
         H 20 -- H 24             -0.00        2.87372
         H 2  -- H 8               0.03        2.87603
         H 1  -- H 7               0.03        2.87603
         H 30 -- C 18             -0.01        2.87908
         H 29 -- C 17             -0.01        2.87908
         H 18 -- C 6              -0.02        2.88379
         H 17 -- C 5              -0.02        2.88379
         H 25 -- C 3              -0.02        2.88676
         H 26 -- C 4              -0.02        2.88676
         H 7  -- O 6              -0.00        2.88916
         H 8  -- O 5              -0.00        2.88916
         C 2  -- C 12             -0.06        2.89029
         C 1  -- C 11             -0.06        2.89029
          N 1 -- O 3              -0.07        2.89853
          N 2 -- O 4              -0.07        2.89853
         H 12 -- C 2              -0.02        2.90267
         H 11 -- C 1              -0.02        2.90267
          N 1 -- O 6              -0.06        2.90302
          N 2 -- O 5              -0.06        2.90302
         H 44 -- C 18             -0.02        2.90499
         H 43 -- C 17             -0.02        2.90499
         H 21 -- N 1              -0.01        2.90728
         H 22 -- N 2              -0.01        2.90728
         H 4  -- H 5              -0.01        2.91954
         H 3  -- H 6              -0.01        2.91954
         H 8  -- O 8               0.00        2.92119
         H 7  -- O 7               0.00        2.92119
         C 13 -- C 23             -0.05        2.93133
         C 14 -- C 24             -0.05        2.93133
         C 20 -- N 4              -0.03        2.93802
         C 19 -- N 3              -0.03        2.93802
         H 24 -- H 38             -0.00        2.95104
         H 23 -- H 37             -0.00        2.95104
         C 22 -- C 24             -0.07        2.95193
         C 21 -- C 23             -0.07        2.95193
         H 19 -- C 23             -0.03        2.95773
         H 20 -- C 24             -0.03        2.95773
         H 40 -- O 4              -0.00        2.96177
         H 39 -- O 3              -0.00        2.96177
         H 19 -- H 45             -0.01        2.96292
         H 20 -- H 46             -0.01        2.96292
         H 25 -- O 3              -0.00        2.96693
         H 26 -- O 4              -0.00        2.96693
         H 21 -- O 1              -0.00        2.97981
         H 22 -- O 2              -0.00        2.97981
         H 2  -- C 12             -0.01        2.98142
         H 1  -- C 11             -0.01        2.98142
         H 5  -- C 14             -0.02        2.98688
         H 6  -- C 13             -0.02        2.98688
         H 22 -- C 2              -0.01        2.99167
         H 21 -- C 1              -0.01        2.99167
         H 46 -- C 24             -0.04        2.99338
         H 45 -- C 23             -0.04        2.99338
============================================================
 

Writing analysis data to phonon.castep_bin

Writing model to phonon.check
 
 A BibTeX formatted list of references used in this run has been written to 
 phonon.bib
 
Initialisation time =      6.07 s
Calculation time    =  66845.51 s
Finalisation time   =      6.65 s
Total time          =  66858.23 s
Peak Memory Use     = 794144 kB
  
Overall parallel efficiency rating: Poor (40%)                                  
  
Data was distributed by:-
G-vector (16-way); efficiency rating: Poor (40%)                                
