 vasp.5.4.4.18Apr17-6-g9f103f2a35 (build May 25 2020 15:00:18) complex           
 executed on     LinuxGNU_vivaldi date 2021.07.03  11:38:38
 running on    8 total cores
 distrk:  each k-point on    8 cores,    1 groups
 distr:  one band on NCORES_PER_BAND=   1 cores,    8 groups


--------------------------------------------------------------------------------------------------------


 INCAR:
 POTCAR:    PAW_PBE Bi_d 06Sep2000                
 POTCAR:    PAW_PBE Se 06Sep2000                  

 ----------------------------------------------------------------------------- 
|                                                                             |
|           W    W    AA    RRRRR   N    N  II  N    N   GGGG   !!!           |
|           W    W   A  A   R    R  NN   N  II  NN   N  G    G  !!!           |
|           W    W  A    A  R    R  N N  N  II  N N  N  G       !!!           |
|           W WW W  AAAAAA  RRRRR   N  N N  II  N  N N  G  GGG   !            |
|           WW  WW  A    A  R   R   N   NN  II  N   NN  G    G                |
|           W    W  A    A  R    R  N    N  II  N    N   GGGG   !!!           |
|                                                                             |
|      For optimal performance we recommend to set                            |
|        NCORE= 4 - approx SQRT( number of cores)                             |
|      NCORE specifies how many cores store one orbital (NPAR=cpu/NCORE).     |
|      This setting can  greatly improve the performance of VASP for DFT.     |
|      The default,   NCORE=1            might be grossly inefficient         |
|      on modern multi-core architectures or massively parallel machines.     |
|      Do your own testing !!!!                                               |
|      Unfortunately you need to use the default for GW and RPA calculations. |
|      (for HF NCORE is supported but not extensively tested yet)             |
|                                                                             |
 ----------------------------------------------------------------------------- 

 POTCAR:    PAW_PBE Bi_d 06Sep2000                
   VRHFIN =Bi:                                                                  
   LEXCH  = PE                                                                  
   EATOM  =  1959.2045 eV,  143.9975 Ry                                         
                                                                                
   TITEL  = PAW_PBE Bi_d 06Sep2000                                              
   LULTRA =        F    use ultrasoft PP ?                                      
   IUNSCR =        1    unscreen: 0-lin 1-nonlin 2-no                           
   RPACOR =    2.200    partial core radius                                     
   POMASS =  208.980; ZVAL   =   15.000    mass and valenz                      
   RCORE  =    2.500    outmost cutoff radius                                   
   RWIGS  =    3.090; RWIGS  =    1.635    wigner-seitz radius (au A)           
   ENMAX  =  242.839; ENMIN  =  182.129 eV                                      
   ICORE  =        3    local potential                                         
   LCOR   =        T    correct aug charges                                     
   LPAW   =        T    paw PP                                                  
   EAUG   =  442.899                                                            
   DEXC   =    0.000                                                            
   RMAX   =    2.551    core radius for proj-oper                               
   RAUG   =    1.300    factor for augmentation sphere                          
   RDEP   =    2.650    radius for radial grids                                 
   RDEPT  =    2.039    core radius for aug-charge                              
                                                                                
   Atomic configuration                                                         
   16 entries                                                                   
     n  l   j            E        occ.                                          
     1  0  0.50    -90639.6581   2.0000                                         
     2  0  0.50    -16282.4666   2.0000                                         
     2  1  1.50    -13922.8286   6.0000                                         
     3  0  0.50     -3930.4763   2.0000                                         
     3  1  1.50     -3256.7013   6.0000                                         
     3  2  2.50     -2581.6168  10.0000                                         
     4  0  0.50      -902.2614   2.0000                                         
     4  1  1.50      -681.5915   6.0000                                         
     4  2  2.50      -429.8249  10.0000                                         
     4  3  3.50      -152.6004  14.0000                                         
     5  0  0.50      -157.7156   2.0000                                         
     5  1  1.50       -95.8054   6.0000                                         
     5  2  2.50       -27.0806  10.0000                                         
     6  0  0.50       -14.4732   2.0000                                         
     6  1  1.50        -4.5702   3.0000                                         
     5  3  2.50        -2.7212   0.0000                                         
   Description                                                                  
     l       E           TYP  RCUT    TYP  RCUT                                 
     2    -27.0805982     23  2.500                                             
     2     -1.3605826     23  2.500                                             
     0    -14.4732271     23  2.500                                             
     0      6.8029130     23  2.500                                             
     1     -4.5701651     23  2.500                                             
     1     13.6058260     23  2.500                                             
     3     -1.3605826      7  2.500                                             
  local pseudopotential read in
  partial core-charges read in
  partial kinetic energy density read in
  atomic valenz-charges read in
  non local Contribution for L=           2  read in
    real space projection operators read in
  non local Contribution for L=           2  read in
    real space projection operators read in
  non local Contribution for L=           0  read in
    real space projection operators read in
  non local Contribution for L=           0  read in
    real space projection operators read in
  non local Contribution for L=           1  read in
    real space projection operators read in
  non local Contribution for L=           1  read in
    real space projection operators read in
    PAW grid and wavefunctions read in

   number of l-projection  operators is LMAX  =           6
   number of lm-projection operators is LMMAX =          18

 POTCAR:    PAW_PBE Se 06Sep2000                  
   VRHFIN =Se: s2p4                                                             
   LEXCH  = PE                                                                  
   EATOM  =   257.1286 eV,   18.8984 Ry                                         
                                                                                
   TITEL  = PAW_PBE Se 06Sep2000                                                
   LULTRA =        F    use ultrasoft PP ?                                      
   IUNSCR =        1    unscreen: 0-lin 1-nonlin 2-no                           
   RPACOR =    1.900    partial core radius                                     
   POMASS =   78.960; ZVAL   =    6.000    mass and valenz                      
   RCORE  =    2.100    outmost cutoff radius                                   
   RWIGS  =    2.200; RWIGS  =    1.164    wigner-seitz radius (au A)           
   ENMAX  =  211.555; ENMIN  =  158.666 eV                                      
   ICORE  =        3    local potential                                         
   LCOR   =        T    correct aug charges                                     
   LPAW   =        T    paw PP                                                  
   EAUG   =  446.842                                                            
   DEXC   =    0.000                                                            
   RMAX   =    2.147    core radius for proj-oper                               
   RAUG   =    1.300    factor for augmentation sphere                          
   RDEP   =    2.177    radius for radial grids                                 
   RDEPT  =    1.928    core radius for aug-charge                              
                                                                                
   Atomic configuration                                                         
   10 entries                                                                   
     n  l   j            E        occ.                                          
     1  0  0.50    -12503.4787   2.0000                                         
     2  0  0.50     -1606.9547   2.0000                                         
     2  1  1.50     -1413.3140   6.0000                                         
     3  0  0.50      -213.4885   2.0000                                         
     3  1  1.50      -152.9538   6.0000                                         
     3  2  2.50       -53.1221  10.0000                                         
     4  0  0.50       -17.2865   2.0000                                         
     4  1  0.50        -6.5110   4.0000                                         
     4  2  2.50        -6.8029   0.0000                                         
     4  3  2.50        -6.8029   0.0000                                         
   Description                                                                  
     l       E           TYP  RCUT    TYP  RCUT                                 
     0    -17.2865377     23  2.100                                             
     0    -15.3094411     23  2.100                                             
     1     -6.5110275     23  2.100                                             
     1     -0.0695192     23  2.100                                             
     2     -6.8029130     23  2.100                                             
     3     -1.3605826      7  2.100                                             
  local pseudopotential read in
  partial core-charges read in
  partial kinetic energy density read in
  atomic valenz-charges read in
  non local Contribution for L=           0  read in
    real space projection operators read in
  non local Contribution for L=           0  read in
    real space projection operators read in
  non local Contribution for L=           1  read in
    real space projection operators read in
  non local Contribution for L=           1  read in
    real space projection operators read in
  non local Contribution for L=           2  read in
    real space projection operators read in
    PAW grid and wavefunctions read in

   number of l-projection  operators is LMAX  =           5
   number of lm-projection operators is LMMAX =          13

  PAW_PBE Bi_d 06Sep2000                :
 energy of atom  1       EATOM=-1959.2045
 kinetic energy error for atom=    0.0049 (will be added to EATOM!!)
  PAW_PBE Se 06Sep2000                  :
 energy of atom  2       EATOM= -257.1286
 kinetic energy error for atom=    0.0008 (will be added to EATOM!!)


 POSCAR: Generated by cif2cell 1.2.10.  :  Failed
  positions in direct lattice
  velocities in cartesian coordinates
 exchange correlation table for  LEXCH =        8
   RHO(1)=    0.500       N(1)  =     2000
   RHO(2)=  100.500       N(2)  =     4000



--------------------------------------------------------------------------------------------------------


 ion  position               nearest neighbor table
   1  0.396  0.396  0.396-   3 2.88   3 2.88   3 2.88   5 3.11   5 3.11   5 3.11
   2  0.604  0.604  0.604-   4 2.88   4 2.88   4 2.88   5 3.11   5 3.11   5 3.11
   3  0.780  0.780  0.780-   1 2.88   1 2.88   1 2.88
   4  0.220  0.220  0.220-   2 2.88   2 2.88   2 2.88
   5  0.000  0.000  0.000-   1 3.11   1 3.11   1 3.11   2 3.11   2 3.11   2 3.11

  LATTYP: Found a trigonal (rhomboedric) cell.
 ALAT       =    10.6557158423
 COS(alpha) =     0.9226954111
  
  Lattice vectors:
  
 A1 = (   2.4190209995,   0.0000000000,  10.3775053609)
 A2 = (  -1.2095104998,   2.0949336379,  10.3775053609)
 A3 = (  -1.2095104998,  -2.0949336379,  10.3775053609)


Analysis of symmetry for initial positions (statically):
=====================================================================
 Subroutine PRICEL returns:
 Original cell was already a primitive cell.
 

 Routine SETGRP: Setting up the symmetry group for a 
 trigonal (rhombohedral) supercell.


 Subroutine GETGRP returns: Found 12 space group operations
 (whereof 12 operations were pure point group operations)
 out of a pool of 12 trial point group operations.


The static configuration has the point symmetry D_3d.


Analysis of symmetry for dynamics (positions and initial velocities):
=====================================================================
 Subroutine PRICEL returns:
 Original cell was already a primitive cell.
 

 Routine SETGRP: Setting up the symmetry group for a 
 trigonal (rhombohedral) supercell.


 Subroutine GETGRP returns: Found 12 space group operations
 (whereof 12 operations were pure point group operations)
 out of a pool of 12 trial point group operations.


The dynamic configuration has the point symmetry D_3d.


 Subroutine INISYM returns: Found 12 space group operations
 (whereof 12 operations are pure point group operations),
 and found     1 'primitive' translations



 KPOINTS: Generated by cif2cell 1.2.10. k-space re

Automatic generation of k-mesh.
Space group operators:
 irot       det(A)        alpha          n_x          n_y          n_z        tau_x        tau_y        tau_z
    1     1.000000     0.000000     1.000000     0.000000     0.000000     0.000000     0.000000     0.000000
    2    -1.000000     0.000000     1.000000     0.000000     0.000000     0.000000     0.000000     0.000000
    3     1.000000   180.000000    -0.000000     1.000000    -0.000000     0.000000     0.000000     0.000000
    4    -1.000000   180.000000    -0.000000     1.000000    -0.000000     0.000000     0.000000     0.000000
    5     1.000000   120.000000     0.000000    -0.000000    -1.000000     0.000000     0.000000     0.000000
    6    -1.000000   120.000000     0.000000    -0.000000    -1.000000     0.000000     0.000000     0.000000
    7     1.000000   180.000000     0.866025    -0.500000     0.000000     0.000000     0.000000     0.000000
    8    -1.000000   180.000000     0.866025    -0.500000     0.000000     0.000000     0.000000     0.000000
    9     1.000000   120.000000     0.000000    -0.000000     1.000000     0.000000     0.000000     0.000000
   10    -1.000000   120.000000     0.000000    -0.000000     1.000000     0.000000     0.000000     0.000000
   11     1.000000   180.000000     0.866025     0.500000    -0.000000     0.000000     0.000000     0.000000
   12    -1.000000   180.000000     0.866025     0.500000    -0.000000     0.000000     0.000000     0.000000
 
 Subroutine IBZKPT returns following result:
 ===========================================
 
 Found     85 irreducible k-points:
 
 Following reciprocal coordinates:
            Coordinates               Weight
  0.000000  0.000000  0.000000      1.000000
  0.111111  0.000000  0.000000      6.000000
  0.222222  0.000000  0.000000      6.000000
  0.333333  0.000000  0.000000      6.000000
  0.444444  0.000000  0.000000      6.000000
  0.111111  0.111111  0.000000      6.000000
  0.222222  0.111111  0.000000     12.000000
  0.333333  0.111111  0.000000     12.000000
  0.444444  0.111111  0.000000     12.000000
 -0.444444  0.111111  0.000000     12.000000
 -0.333333  0.111111  0.000000     12.000000
 -0.222222  0.111111  0.000000     12.000000
 -0.111111  0.111111  0.000000      6.000000
  0.222222  0.222222  0.000000      6.000000
  0.333333  0.222222  0.000000     12.000000
  0.444444  0.222222  0.000000     12.000000
 -0.444444  0.222222  0.000000     12.000000
 -0.333333  0.222222  0.000000     12.000000
 -0.222222  0.222222  0.000000      6.000000
  0.333333  0.333333  0.000000      6.000000
  0.444444  0.333333  0.000000     12.000000
 -0.444444  0.333333  0.000000     12.000000
 -0.333333  0.333333  0.000000      6.000000
  0.444444  0.444444  0.000000      6.000000
 -0.444444  0.444444  0.000000      6.000000
  0.111111  0.111111  0.111111      2.000000
  0.222222  0.111111  0.111111      6.000000
  0.333333  0.111111  0.111111      6.000000
  0.444444  0.111111  0.111111      6.000000
 -0.444444  0.111111  0.111111      6.000000
 -0.333333  0.111111  0.111111      6.000000
 -0.222222  0.111111  0.111111      6.000000
 -0.111111  0.111111  0.111111      6.000000
  0.222222  0.222222  0.111111      6.000000
  0.333333  0.222222  0.111111     12.000000
  0.444444  0.222222  0.111111     12.000000
 -0.444444  0.222222  0.111111     12.000000
 -0.333333  0.222222  0.111111     12.000000
 -0.222222  0.222222  0.111111     12.000000
 -0.111111  0.222222  0.111111     12.000000
  0.333333  0.333333  0.111111      6.000000
  0.444444  0.333333  0.111111     12.000000
 -0.444444  0.333333  0.111111     12.000000
 -0.333333  0.333333  0.111111     12.000000
 -0.222222  0.333333  0.111111     12.000000
 -0.111111  0.333333  0.111111     12.000000
  0.444444  0.444444  0.111111      6.000000
 -0.444444  0.444444  0.111111     12.000000
 -0.333333  0.444444  0.111111     12.000000
 -0.222222  0.444444  0.111111     12.000000
 -0.111111  0.444444  0.111111     12.000000
 -0.444444 -0.444444  0.111111      6.000000
 -0.333333 -0.444444  0.111111     12.000000
 -0.222222 -0.444444  0.111111     12.000000
 -0.333333 -0.333333  0.111111      6.000000
 -0.222222 -0.333333  0.111111     12.000000
 -0.222222 -0.222222  0.111111      6.000000
  0.222222  0.222222  0.222222      2.000000
  0.333333  0.222222  0.222222      6.000000
  0.444444  0.222222  0.222222      6.000000
 -0.444444  0.222222  0.222222      6.000000
 -0.333333  0.222222  0.222222      6.000000
 -0.222222  0.222222  0.222222      6.000000
  0.333333  0.333333  0.222222      6.000000
  0.444444  0.333333  0.222222     12.000000
 -0.444444  0.333333  0.222222     12.000000
 -0.333333  0.333333  0.222222     12.000000
 -0.222222  0.333333  0.222222     12.000000
  0.444444  0.444444  0.222222      6.000000
 -0.444444  0.444444  0.222222     12.000000
 -0.333333  0.444444  0.222222     12.000000
 -0.222222  0.444444  0.222222     12.000000
 -0.444444 -0.444444  0.222222      6.000000
 -0.333333 -0.444444  0.222222     12.000000
 -0.333333 -0.333333  0.222222      6.000000
  0.333333  0.333333  0.333333      2.000000
  0.444444  0.333333  0.333333      6.000000
 -0.444444  0.333333  0.333333      6.000000
 -0.333333  0.333333  0.333333      6.000000
  0.444444  0.444444  0.333333      6.000000
 -0.444444  0.444444  0.333333     12.000000
 -0.333333  0.444444  0.333333     12.000000
 -0.444444 -0.444444  0.333333      6.000000
  0.444444  0.444444  0.444444      2.000000
 -0.444444  0.444444  0.444444      6.000000
 
 Following cartesian coordinates:
            Coordinates               Weight
  0.000000  0.000000  0.000000      1.000000
  0.128297  0.000000  0.014953      6.000000
  0.256594  0.000000  0.029906      6.000000
  0.384891  0.000000  0.044859      6.000000
  0.513188  0.000000  0.059813      6.000000
  0.064148  0.111108  0.029906      6.000000
  0.192445  0.111108  0.044859     12.000000
  0.320742  0.111108  0.059813     12.000000
  0.449039  0.111108  0.074766     12.000000
 -0.577336  0.111108 -0.044859     12.000000
 -0.449039  0.111108 -0.029906     12.000000
 -0.320742  0.111108 -0.014953     12.000000
 -0.192445  0.111108  0.000000      6.000000
  0.128297  0.222217  0.059813      6.000000
  0.256594  0.222217  0.074766     12.000000
  0.384891  0.222217  0.089719     12.000000
 -0.641485  0.222217 -0.029906     12.000000
 -0.513188  0.222217 -0.014953     12.000000
 -0.384891  0.222217 -0.000000      6.000000
  0.192445  0.333325  0.089719      6.000000
  0.320742  0.333325  0.104672     12.000000
 -0.705633  0.333325 -0.014953     12.000000
 -0.577336  0.333325  0.000000      6.000000
  0.256594  0.444434  0.119625      6.000000
 -0.769782  0.444434 -0.000000      6.000000
  0.000000  0.000000  0.044859      2.000000
  0.128297  0.000000  0.059813      6.000000
  0.256594  0.000000  0.074766      6.000000
  0.384891  0.000000  0.089719      6.000000
 -0.641485  0.000000 -0.029906      6.000000
 -0.513188  0.000000 -0.014953      6.000000
 -0.384891  0.000000  0.000000      6.000000
 -0.256594  0.000000  0.014953      6.000000
  0.064148  0.111108  0.074766      6.000000
  0.192445  0.111108  0.089719     12.000000
  0.320742  0.111108  0.104672     12.000000
 -0.705633  0.111108 -0.014953     12.000000
 -0.577336  0.111108  0.000000     12.000000
 -0.449039  0.111108  0.014953     12.000000
 -0.320742  0.111108  0.029906     12.000000
  0.128297  0.222217  0.104672      6.000000
  0.256594  0.222217  0.119625     12.000000
 -0.769782  0.222217  0.000000     12.000000
 -0.641485  0.222217  0.014953     12.000000
 -0.513188  0.222217  0.029906     12.000000
 -0.384891  0.222217  0.044859     12.000000
  0.192445  0.333325  0.134578      6.000000
 -0.833930  0.333325  0.014953     12.000000
 -0.705633  0.333325  0.029906     12.000000
 -0.577336  0.333325  0.044859     12.000000
 -0.449039  0.333325  0.059813     12.000000
 -0.320742 -0.555542 -0.104672      6.000000
 -0.192445 -0.555542 -0.089719     12.000000
 -0.064148 -0.555542 -0.074766     12.000000
 -0.256594 -0.444434 -0.074766      6.000000
 -0.128297 -0.444434 -0.059813     12.000000
 -0.192445 -0.333325 -0.044859      6.000000
  0.000000  0.000000  0.089719      2.000000
  0.128297  0.000000  0.104672      6.000000
  0.256594  0.000000  0.119625      6.000000
 -0.769782  0.000000  0.000000      6.000000
 -0.641485  0.000000  0.014953      6.000000
 -0.513188  0.000000  0.029906      6.000000
  0.064148  0.111108  0.119625      6.000000
  0.192445  0.111108  0.134578     12.000000
 -0.833930  0.111108  0.014953     12.000000
 -0.705633  0.111108  0.029906     12.000000
 -0.577336  0.111108  0.044859     12.000000
  0.128297  0.222217  0.149532      6.000000
 -0.898079  0.222217  0.029906     12.000000
 -0.769782  0.222217  0.044859     12.000000
 -0.641485  0.222217  0.059813     12.000000
 -0.384891 -0.666651 -0.089719      6.000000
 -0.256594 -0.666651 -0.074766     12.000000
 -0.320742 -0.555542 -0.059813      6.000000
  0.000000  0.000000  0.134578      2.000000
  0.128297  0.000000  0.149532      6.000000
 -0.898079  0.000000  0.029906      6.000000
 -0.769782  0.000000  0.044859      6.000000
  0.064148  0.111108  0.164485      6.000000
 -0.962227  0.111108  0.044859     12.000000
 -0.833930  0.111108  0.059813     12.000000
 -0.449039 -0.777759 -0.074766      6.000000
 -0.000000  0.000000  0.179438      2.000000
 -1.026376  0.000000  0.059813      6.000000
 
 TETIRR: Found    369 inequivalent tetrahedra from     4374
 
 Subroutine IBZKPT_HF returns following result:
 ==============================================
 
 Found    729 k-points in 1st BZ
 the following    729 k-points will be used (e.g. in the exchange kernel)
 Following reciprocal coordinates:   # in IRBZ
  0.000000  0.000000  0.000000    0.00137174   1 t-inv F
  0.111111  0.000000  0.000000    0.00137174   2 t-inv F
  0.222222  0.000000  0.000000    0.00137174   3 t-inv F
  0.333333  0.000000  0.000000    0.00137174   4 t-inv F
  0.444444  0.000000  0.000000    0.00137174   5 t-inv F
  0.111111  0.111111  0.000000    0.00137174   6 t-inv F
  0.222222  0.111111  0.000000    0.00137174   7 t-inv F
  0.333333  0.111111  0.000000    0.00137174   8 t-inv F
  0.444444  0.111111  0.000000    0.00137174   9 t-inv F
 -0.444444  0.111111  0.000000    0.00137174  10 t-inv F
 -0.333333  0.111111  0.000000    0.00137174  11 t-inv F
 -0.222222  0.111111  0.000000    0.00137174  12 t-inv F
 -0.111111  0.111111  0.000000    0.00137174  13 t-inv F
  0.222222  0.222222  0.000000    0.00137174  14 t-inv F
  0.333333  0.222222  0.000000    0.00137174  15 t-inv F
  0.444444  0.222222  0.000000    0.00137174  16 t-inv F
 -0.444444  0.222222  0.000000    0.00137174  17 t-inv F
 -0.333333  0.222222  0.000000    0.00137174  18 t-inv F
 -0.222222  0.222222  0.000000    0.00137174  19 t-inv F
  0.333333  0.333333  0.000000    0.00137174  20 t-inv F
  0.444444  0.333333  0.000000    0.00137174  21 t-inv F
 -0.444444  0.333333  0.000000    0.00137174  22 t-inv F
 -0.333333  0.333333  0.000000    0.00137174  23 t-inv F
  0.444444  0.444444  0.000000    0.00137174  24 t-inv F
 -0.444444  0.444444  0.000000    0.00137174  25 t-inv F
  0.111111  0.111111  0.111111    0.00137174  26 t-inv F
  0.222222  0.111111  0.111111    0.00137174  27 t-inv F
  0.333333  0.111111  0.111111    0.00137174  28 t-inv F
  0.444444  0.111111  0.111111    0.00137174  29 t-inv F
 -0.444444  0.111111  0.111111    0.00137174  30 t-inv F
 -0.333333  0.111111  0.111111    0.00137174  31 t-inv F
 -0.222222  0.111111  0.111111    0.00137174  32 t-inv F
 -0.111111  0.111111  0.111111    0.00137174  33 t-inv F
  0.222222  0.222222  0.111111    0.00137174  34 t-inv F
  0.333333  0.222222  0.111111    0.00137174  35 t-inv F
  0.444444  0.222222  0.111111    0.00137174  36 t-inv F
 -0.444444  0.222222  0.111111    0.00137174  37 t-inv F
 -0.333333  0.222222  0.111111    0.00137174  38 t-inv F
 -0.222222  0.222222  0.111111    0.00137174  39 t-inv F
 -0.111111  0.222222  0.111111    0.00137174  40 t-inv F
  0.333333  0.333333  0.111111    0.00137174  41 t-inv F
  0.444444  0.333333  0.111111    0.00137174  42 t-inv F
 -0.444444  0.333333  0.111111    0.00137174  43 t-inv F
 -0.333333  0.333333  0.111111    0.00137174  44 t-inv F
 -0.222222  0.333333  0.111111    0.00137174  45 t-inv F
 -0.111111  0.333333  0.111111    0.00137174  46 t-inv F
  0.444444  0.444444  0.111111    0.00137174  47 t-inv F
 -0.444444  0.444444  0.111111    0.00137174  48 t-inv F
 -0.333333  0.444444  0.111111    0.00137174  49 t-inv F
 -0.222222  0.444444  0.111111    0.00137174  50 t-inv F
 -0.111111  0.444444  0.111111    0.00137174  51 t-inv F
 -0.444444 -0.444444  0.111111    0.00137174  52 t-inv F
 -0.333333 -0.444444  0.111111    0.00137174  53 t-inv F
 -0.222222 -0.444444  0.111111    0.00137174  54 t-inv F
 -0.333333 -0.333333  0.111111    0.00137174  55 t-inv F
 -0.222222 -0.333333  0.111111    0.00137174  56 t-inv F
 -0.222222 -0.222222  0.111111    0.00137174  57 t-inv F
  0.222222  0.222222  0.222222    0.00137174  58 t-inv F
  0.333333  0.222222  0.222222    0.00137174  59 t-inv F
  0.444444  0.222222  0.222222    0.00137174  60 t-inv F
 -0.444444  0.222222  0.222222    0.00137174  61 t-inv F
 -0.333333  0.222222  0.222222    0.00137174  62 t-inv F
 -0.222222  0.222222  0.222222    0.00137174  63 t-inv F
  0.333333  0.333333  0.222222    0.00137174  64 t-inv F
  0.444444  0.333333  0.222222    0.00137174  65 t-inv F
 -0.444444  0.333333  0.222222    0.00137174  66 t-inv F
 -0.333333  0.333333  0.222222    0.00137174  67 t-inv F
 -0.222222  0.333333  0.222222    0.00137174  68 t-inv F
  0.444444  0.444444  0.222222    0.00137174  69 t-inv F
 -0.444444  0.444444  0.222222    0.00137174  70 t-inv F
 -0.333333  0.444444  0.222222    0.00137174  71 t-inv F
 -0.222222  0.444444  0.222222    0.00137174  72 t-inv F
 -0.444444 -0.444444  0.222222    0.00137174  73 t-inv F
 -0.333333 -0.444444  0.222222    0.00137174  74 t-inv F
 -0.333333 -0.333333  0.222222    0.00137174  75 t-inv F
  0.333333  0.333333  0.333333    0.00137174  76 t-inv F
  0.444444  0.333333  0.333333    0.00137174  77 t-inv F
 -0.444444  0.333333  0.333333    0.00137174  78 t-inv F
 -0.333333  0.333333  0.333333    0.00137174  79 t-inv F
  0.444444  0.444444  0.333333    0.00137174  80 t-inv F
 -0.444444  0.444444  0.333333    0.00137174  81 t-inv F
 -0.333333  0.444444  0.333333    0.00137174  82 t-inv F
 -0.444444 -0.444444  0.333333    0.00137174  83 t-inv F
  0.444444  0.444444  0.444444    0.00137174  84 t-inv F
 -0.444444  0.444444  0.444444    0.00137174  85 t-inv F
 -0.111111 -0.000000 -0.000000    0.00137174   2 t-inv F
  0.000000  0.111111  0.000000    0.00137174   2 t-inv F
 -0.000000 -0.111111 -0.000000    0.00137174   2 t-inv F
  0.000000  0.000000  0.111111    0.00137174   2 t-inv F
 -0.000000 -0.000000 -0.111111    0.00137174   2 t-inv F
 -0.222222 -0.000000 -0.000000    0.00137174   3 t-inv F
  0.000000  0.222222  0.000000    0.00137174   3 t-inv F
 -0.000000 -0.222222 -0.000000    0.00137174   3 t-inv F
  0.000000  0.000000  0.222222    0.00137174   3 t-inv F
 -0.000000 -0.000000 -0.222222    0.00137174   3 t-inv F
 -0.333333 -0.000000 -0.000000    0.00137174   4 t-inv F
  0.000000  0.333333  0.000000    0.00137174   4 t-inv F
 -0.000000 -0.333333 -0.000000    0.00137174   4 t-inv F
  0.000000  0.000000  0.333333    0.00137174   4 t-inv F
 -0.000000 -0.000000 -0.333333    0.00137174   4 t-inv F
 -0.444444 -0.000000 -0.000000    0.00137174   5 t-inv F
  0.000000  0.444444  0.000000    0.00137174   5 t-inv F
 -0.000000 -0.444444 -0.000000    0.00137174   5 t-inv F
  0.000000  0.000000  0.444444    0.00137174   5 t-inv F
 -0.000000 -0.000000 -0.444444    0.00137174   5 t-inv F
 -0.111111 -0.111111 -0.000000    0.00137174   6 t-inv F
 -0.111111 -0.000000 -0.111111    0.00137174   6 t-inv F
  0.111111  0.000000  0.111111    0.00137174   6 t-inv F
  0.000000  0.111111  0.111111    0.00137174   6 t-inv F
 -0.000000 -0.111111 -0.111111    0.00137174   6 t-inv F
 -0.222222 -0.111111 -0.000000    0.00137174   7 t-inv F
 -0.222222 -0.000000 -0.111111    0.00137174   7 t-inv F
  0.222222  0.000000  0.111111    0.00137174   7 t-inv F
  0.000000  0.222222  0.111111    0.00137174   7 t-inv F
 -0.000000 -0.222222 -0.111111    0.00137174   7 t-inv F
 -0.111111 -0.222222 -0.000000    0.00137174   7 t-inv F
  0.111111  0.222222  0.000000    0.00137174   7 t-inv F
  0.111111  0.000000  0.222222    0.00137174   7 t-inv F
 -0.111111 -0.000000 -0.222222    0.00137174   7 t-inv F
 -0.000000 -0.111111 -0.222222    0.00137174   7 t-inv F
  0.000000  0.111111  0.222222    0.00137174   7 t-inv F
 -0.333333 -0.111111 -0.000000    0.00137174   8 t-inv F
 -0.333333 -0.000000 -0.111111    0.00137174   8 t-inv F
  0.333333  0.000000  0.111111    0.00137174   8 t-inv F
  0.000000  0.333333  0.111111    0.00137174   8 t-inv F
 -0.000000 -0.333333 -0.111111    0.00137174   8 t-inv F
 -0.111111 -0.333333 -0.000000    0.00137174   8 t-inv F
  0.111111  0.333333  0.000000    0.00137174   8 t-inv F
  0.111111  0.000000  0.333333    0.00137174   8 t-inv F
 -0.111111 -0.000000 -0.333333    0.00137174   8 t-inv F
 -0.000000 -0.111111 -0.333333    0.00137174   8 t-inv F
  0.000000  0.111111  0.333333    0.00137174   8 t-inv F
 -0.444444 -0.111111 -0.000000    0.00137174   9 t-inv F
 -0.444444 -0.000000 -0.111111    0.00137174   9 t-inv F
  0.444444  0.000000  0.111111    0.00137174   9 t-inv F
  0.000000  0.444444  0.111111    0.00137174   9 t-inv F
 -0.000000 -0.444444 -0.111111    0.00137174   9 t-inv F
 -0.111111 -0.444444 -0.000000    0.00137174   9 t-inv F
  0.111111  0.444444  0.000000    0.00137174   9 t-inv F
  0.111111  0.000000  0.444444    0.00137174   9 t-inv F
 -0.111111 -0.000000 -0.444444    0.00137174   9 t-inv F
 -0.000000 -0.111111 -0.444444    0.00137174   9 t-inv F
  0.000000  0.111111  0.444444    0.00137174   9 t-inv F
  0.444444 -0.111111 -0.000000    0.00137174  10 t-inv F
  0.444444 -0.000000 -0.111111    0.00137174  10 t-inv F
 -0.444444  0.000000  0.111111    0.00137174  10 t-inv F
  0.000000 -0.444444  0.111111    0.00137174  10 t-inv F
 -0.000000  0.444444 -0.111111    0.00137174  10 t-inv F
 -0.111111  0.444444 -0.000000    0.00137174  10 t-inv F
  0.111111 -0.444444  0.000000    0.00137174  10 t-inv F
  0.111111  0.000000 -0.444444    0.00137174  10 t-inv F
 -0.111111 -0.000000  0.444444    0.00137174  10 t-inv F
 -0.000000 -0.111111  0.444444    0.00137174  10 t-inv F
  0.000000  0.111111 -0.444444    0.00137174  10 t-inv F
  0.333333 -0.111111 -0.000000    0.00137174  11 t-inv F
  0.333333 -0.000000 -0.111111    0.00137174  11 t-inv F
 -0.333333  0.000000  0.111111    0.00137174  11 t-inv F
  0.000000 -0.333333  0.111111    0.00137174  11 t-inv F
 -0.000000  0.333333 -0.111111    0.00137174  11 t-inv F
 -0.111111  0.333333 -0.000000    0.00137174  11 t-inv F
  0.111111 -0.333333  0.000000    0.00137174  11 t-inv F
  0.111111  0.000000 -0.333333    0.00137174  11 t-inv F
 -0.111111 -0.000000  0.333333    0.00137174  11 t-inv F
 -0.000000 -0.111111  0.333333    0.00137174  11 t-inv F
  0.000000  0.111111 -0.333333    0.00137174  11 t-inv F
  0.222222 -0.111111 -0.000000    0.00137174  12 t-inv F
  0.222222 -0.000000 -0.111111    0.00137174  12 t-inv F
 -0.222222  0.000000  0.111111    0.00137174  12 t-inv F
  0.000000 -0.222222  0.111111    0.00137174  12 t-inv F
 -0.000000  0.222222 -0.111111    0.00137174  12 t-inv F
 -0.111111  0.222222 -0.000000    0.00137174  12 t-inv F
  0.111111 -0.222222  0.000000    0.00137174  12 t-inv F
  0.111111  0.000000 -0.222222    0.00137174  12 t-inv F
 -0.111111 -0.000000  0.222222    0.00137174  12 t-inv F
 -0.000000 -0.111111  0.222222    0.00137174  12 t-inv F
  0.000000  0.111111 -0.222222    0.00137174  12 t-inv F
  0.111111 -0.111111 -0.000000    0.00137174  13 t-inv F
  0.111111 -0.000000 -0.111111    0.00137174  13 t-inv F
 -0.111111  0.000000  0.111111    0.00137174  13 t-inv F
  0.000000 -0.111111  0.111111    0.00137174  13 t-inv F
 -0.000000  0.111111 -0.111111    0.00137174  13 t-inv F
 -0.222222 -0.222222 -0.000000    0.00137174  14 t-inv F
 -0.222222 -0.000000 -0.222222    0.00137174  14 t-inv F
  0.222222  0.000000  0.222222    0.00137174  14 t-inv F
  0.000000  0.222222  0.222222    0.00137174  14 t-inv F
 -0.000000 -0.222222 -0.222222    0.00137174  14 t-inv F
 -0.333333 -0.222222 -0.000000    0.00137174  15 t-inv F
 -0.333333 -0.000000 -0.222222    0.00137174  15 t-inv F
  0.333333  0.000000  0.222222    0.00137174  15 t-inv F
  0.000000  0.333333  0.222222    0.00137174  15 t-inv F
 -0.000000 -0.333333 -0.222222    0.00137174  15 t-inv F
 -0.222222 -0.333333 -0.000000    0.00137174  15 t-inv F
  0.222222  0.333333  0.000000    0.00137174  15 t-inv F
  0.222222  0.000000  0.333333    0.00137174  15 t-inv F
 -0.222222 -0.000000 -0.333333    0.00137174  15 t-inv F
 -0.000000 -0.222222 -0.333333    0.00137174  15 t-inv F
  0.000000  0.222222  0.333333    0.00137174  15 t-inv F
 -0.444444 -0.222222 -0.000000    0.00137174  16 t-inv F
 -0.444444 -0.000000 -0.222222    0.00137174  16 t-inv F
  0.444444  0.000000  0.222222    0.00137174  16 t-inv F
  0.000000  0.444444  0.222222    0.00137174  16 t-inv F
 -0.000000 -0.444444 -0.222222    0.00137174  16 t-inv F
 -0.222222 -0.444444 -0.000000    0.00137174  16 t-inv F
  0.222222  0.444444  0.000000    0.00137174  16 t-inv F
  0.222222  0.000000  0.444444    0.00137174  16 t-inv F
 -0.222222 -0.000000 -0.444444    0.00137174  16 t-inv F
 -0.000000 -0.222222 -0.444444    0.00137174  16 t-inv F
  0.000000  0.222222  0.444444    0.00137174  16 t-inv F
  0.444444 -0.222222 -0.000000    0.00137174  17 t-inv F
  0.444444 -0.000000 -0.222222    0.00137174  17 t-inv F
 -0.444444  0.000000  0.222222    0.00137174  17 t-inv F
  0.000000 -0.444444  0.222222    0.00137174  17 t-inv F
 -0.000000  0.444444 -0.222222    0.00137174  17 t-inv F
 -0.222222  0.444444 -0.000000    0.00137174  17 t-inv F
  0.222222 -0.444444  0.000000    0.00137174  17 t-inv F
  0.222222  0.000000 -0.444444    0.00137174  17 t-inv F
 -0.222222 -0.000000  0.444444    0.00137174  17 t-inv F
 -0.000000 -0.222222  0.444444    0.00137174  17 t-inv F
  0.000000  0.222222 -0.444444    0.00137174  17 t-inv F
  0.333333 -0.222222 -0.000000    0.00137174  18 t-inv F
  0.333333 -0.000000 -0.222222    0.00137174  18 t-inv F
 -0.333333  0.000000  0.222222    0.00137174  18 t-inv F
  0.000000 -0.333333  0.222222    0.00137174  18 t-inv F
 -0.000000  0.333333 -0.222222    0.00137174  18 t-inv F
 -0.222222  0.333333 -0.000000    0.00137174  18 t-inv F
  0.222222 -0.333333  0.000000    0.00137174  18 t-inv F
  0.222222  0.000000 -0.333333    0.00137174  18 t-inv F
 -0.222222 -0.000000  0.333333    0.00137174  18 t-inv F
 -0.000000 -0.222222  0.333333    0.00137174  18 t-inv F
  0.000000  0.222222 -0.333333    0.00137174  18 t-inv F
  0.222222 -0.222222 -0.000000    0.00137174  19 t-inv F
  0.222222 -0.000000 -0.222222    0.00137174  19 t-inv F
 -0.222222  0.000000  0.222222    0.00137174  19 t-inv F
  0.000000 -0.222222  0.222222    0.00137174  19 t-inv F
 -0.000000  0.222222 -0.222222    0.00137174  19 t-inv F
 -0.333333 -0.333333 -0.000000    0.00137174  20 t-inv F
 -0.333333 -0.000000 -0.333333    0.00137174  20 t-inv F
  0.333333  0.000000  0.333333    0.00137174  20 t-inv F
  0.000000  0.333333  0.333333    0.00137174  20 t-inv F
 -0.000000 -0.333333 -0.333333    0.00137174  20 t-inv F
 -0.444444 -0.333333 -0.000000    0.00137174  21 t-inv F
 -0.444444 -0.000000 -0.333333    0.00137174  21 t-inv F
  0.444444  0.000000  0.333333    0.00137174  21 t-inv F
  0.000000  0.444444  0.333333    0.00137174  21 t-inv F
 -0.000000 -0.444444 -0.333333    0.00137174  21 t-inv F
 -0.333333 -0.444444 -0.000000    0.00137174  21 t-inv F
  0.333333  0.444444  0.000000    0.00137174  21 t-inv F
  0.333333  0.000000  0.444444    0.00137174  21 t-inv F
 -0.333333 -0.000000 -0.444444    0.00137174  21 t-inv F
 -0.000000 -0.333333 -0.444444    0.00137174  21 t-inv F
  0.000000  0.333333  0.444444    0.00137174  21 t-inv F
  0.444444 -0.333333 -0.000000    0.00137174  22 t-inv F
  0.444444 -0.000000 -0.333333    0.00137174  22 t-inv F
 -0.444444  0.000000  0.333333    0.00137174  22 t-inv F
  0.000000 -0.444444  0.333333    0.00137174  22 t-inv F
 -0.000000  0.444444 -0.333333    0.00137174  22 t-inv F
 -0.333333  0.444444 -0.000000    0.00137174  22 t-inv F
  0.333333 -0.444444  0.000000    0.00137174  22 t-inv F
  0.333333  0.000000 -0.444444    0.00137174  22 t-inv F
 -0.333333 -0.000000  0.444444    0.00137174  22 t-inv F
 -0.000000 -0.333333  0.444444    0.00137174  22 t-inv F
  0.000000  0.333333 -0.444444    0.00137174  22 t-inv F
  0.333333 -0.333333 -0.000000    0.00137174  23 t-inv F
  0.333333 -0.000000 -0.333333    0.00137174  23 t-inv F
 -0.333333  0.000000  0.333333    0.00137174  23 t-inv F
  0.000000 -0.333333  0.333333    0.00137174  23 t-inv F
 -0.000000  0.333333 -0.333333    0.00137174  23 t-inv F
 -0.444444 -0.444444 -0.000000    0.00137174  24 t-inv F
 -0.444444 -0.000000 -0.444444    0.00137174  24 t-inv F
  0.444444  0.000000  0.444444    0.00137174  24 t-inv F
  0.000000  0.444444  0.444444    0.00137174  24 t-inv F
 -0.000000 -0.444444 -0.444444    0.00137174  24 t-inv F
  0.444444 -0.444444 -0.000000    0.00137174  25 t-inv F
  0.444444 -0.000000 -0.444444    0.00137174  25 t-inv F
 -0.444444  0.000000  0.444444    0.00137174  25 t-inv F
  0.000000 -0.444444  0.444444    0.00137174  25 t-inv F
 -0.000000  0.444444 -0.444444    0.00137174  25 t-inv F
 -0.111111 -0.111111 -0.111111    0.00137174  26 t-inv F
 -0.222222 -0.111111 -0.111111    0.00137174  27 t-inv F
  0.111111  0.222222  0.111111    0.00137174  27 t-inv F
 -0.111111 -0.222222 -0.111111    0.00137174  27 t-inv F
  0.111111  0.111111  0.222222    0.00137174  27 t-inv F
 -0.111111 -0.111111 -0.222222    0.00137174  27 t-inv F
 -0.333333 -0.111111 -0.111111    0.00137174  28 t-inv F
  0.111111  0.333333  0.111111    0.00137174  28 t-inv F
 -0.111111 -0.333333 -0.111111    0.00137174  28 t-inv F
  0.111111  0.111111  0.333333    0.00137174  28 t-inv F
 -0.111111 -0.111111 -0.333333    0.00137174  28 t-inv F
 -0.444444 -0.111111 -0.111111    0.00137174  29 t-inv F
  0.111111  0.444444  0.111111    0.00137174  29 t-inv F
 -0.111111 -0.444444 -0.111111    0.00137174  29 t-inv F
  0.111111  0.111111  0.444444    0.00137174  29 t-inv F
 -0.111111 -0.111111 -0.444444    0.00137174  29 t-inv F
  0.444444 -0.111111 -0.111111    0.00137174  30 t-inv F
  0.111111 -0.444444  0.111111    0.00137174  30 t-inv F
 -0.111111  0.444444 -0.111111    0.00137174  30 t-inv F
  0.111111  0.111111 -0.444444    0.00137174  30 t-inv F
 -0.111111 -0.111111  0.444444    0.00137174  30 t-inv F
  0.333333 -0.111111 -0.111111    0.00137174  31 t-inv F
  0.111111 -0.333333  0.111111    0.00137174  31 t-inv F
 -0.111111  0.333333 -0.111111    0.00137174  31 t-inv F
  0.111111  0.111111 -0.333333    0.00137174  31 t-inv F
 -0.111111 -0.111111  0.333333    0.00137174  31 t-inv F
  0.222222 -0.111111 -0.111111    0.00137174  32 t-inv F
  0.111111 -0.222222  0.111111    0.00137174  32 t-inv F
 -0.111111  0.222222 -0.111111    0.00137174  32 t-inv F
  0.111111  0.111111 -0.222222    0.00137174  32 t-inv F
 -0.111111 -0.111111  0.222222    0.00137174  32 t-inv F
  0.111111 -0.111111 -0.111111    0.00137174  33 t-inv F
  0.111111 -0.111111  0.111111    0.00137174  33 t-inv F
 -0.111111  0.111111 -0.111111    0.00137174  33 t-inv F
  0.111111  0.111111 -0.111111    0.00137174  33 t-inv F
 -0.111111 -0.111111  0.111111    0.00137174  33 t-inv F
 -0.222222 -0.222222 -0.111111    0.00137174  34 t-inv F
 -0.222222 -0.111111 -0.222222    0.00137174  34 t-inv F
  0.222222  0.111111  0.222222    0.00137174  34 t-inv F
  0.111111  0.222222  0.222222    0.00137174  34 t-inv F
 -0.111111 -0.222222 -0.222222    0.00137174  34 t-inv F
 -0.333333 -0.222222 -0.111111    0.00137174  35 t-inv F
 -0.333333 -0.111111 -0.222222    0.00137174  35 t-inv F
  0.333333  0.111111  0.222222    0.00137174  35 t-inv F
  0.111111  0.333333  0.222222    0.00137174  35 t-inv F
 -0.111111 -0.333333 -0.222222    0.00137174  35 t-inv F
 -0.222222 -0.333333 -0.111111    0.00137174  35 t-inv F
  0.222222  0.333333  0.111111    0.00137174  35 t-inv F
  0.222222  0.111111  0.333333    0.00137174  35 t-inv F
 -0.222222 -0.111111 -0.333333    0.00137174  35 t-inv F
 -0.111111 -0.222222 -0.333333    0.00137174  35 t-inv F
  0.111111  0.222222  0.333333    0.00137174  35 t-inv F
 -0.444444 -0.222222 -0.111111    0.00137174  36 t-inv F
 -0.444444 -0.111111 -0.222222    0.00137174  36 t-inv F
  0.444444  0.111111  0.222222    0.00137174  36 t-inv F
  0.111111  0.444444  0.222222    0.00137174  36 t-inv F
 -0.111111 -0.444444 -0.222222    0.00137174  36 t-inv F
 -0.222222 -0.444444 -0.111111    0.00137174  36 t-inv F
  0.222222  0.444444  0.111111    0.00137174  36 t-inv F
  0.222222  0.111111  0.444444    0.00137174  36 t-inv F
 -0.222222 -0.111111 -0.444444    0.00137174  36 t-inv F
 -0.111111 -0.222222 -0.444444    0.00137174  36 t-inv F
  0.111111  0.222222  0.444444    0.00137174  36 t-inv F
  0.444444 -0.222222 -0.111111    0.00137174  37 t-inv F
  0.444444 -0.111111 -0.222222    0.00137174  37 t-inv F
 -0.444444  0.111111  0.222222    0.00137174  37 t-inv F
  0.111111 -0.444444  0.222222    0.00137174  37 t-inv F
 -0.111111  0.444444 -0.222222    0.00137174  37 t-inv F
 -0.222222  0.444444 -0.111111    0.00137174  37 t-inv F
  0.222222 -0.444444  0.111111    0.00137174  37 t-inv F
  0.222222  0.111111 -0.444444    0.00137174  37 t-inv F
 -0.222222 -0.111111  0.444444    0.00137174  37 t-inv F
 -0.111111 -0.222222  0.444444    0.00137174  37 t-inv F
  0.111111  0.222222 -0.444444    0.00137174  37 t-inv F
  0.333333 -0.222222 -0.111111    0.00137174  38 t-inv F
  0.333333 -0.111111 -0.222222    0.00137174  38 t-inv F
 -0.333333  0.111111  0.222222    0.00137174  38 t-inv F
  0.111111 -0.333333  0.222222    0.00137174  38 t-inv F
 -0.111111  0.333333 -0.222222    0.00137174  38 t-inv F
 -0.222222  0.333333 -0.111111    0.00137174  38 t-inv F
  0.222222 -0.333333  0.111111    0.00137174  38 t-inv F
  0.222222  0.111111 -0.333333    0.00137174  38 t-inv F
 -0.222222 -0.111111  0.333333    0.00137174  38 t-inv F
 -0.111111 -0.222222  0.333333    0.00137174  38 t-inv F
  0.111111  0.222222 -0.333333    0.00137174  38 t-inv F
  0.222222 -0.222222 -0.111111    0.00137174  39 t-inv F
  0.222222 -0.111111 -0.222222    0.00137174  39 t-inv F
 -0.222222  0.111111  0.222222    0.00137174  39 t-inv F
  0.111111 -0.222222  0.222222    0.00137174  39 t-inv F
 -0.111111  0.222222 -0.222222    0.00137174  39 t-inv F
 -0.222222  0.222222 -0.111111    0.00137174  39 t-inv F
  0.222222 -0.222222  0.111111    0.00137174  39 t-inv F
  0.222222  0.111111 -0.222222    0.00137174  39 t-inv F
 -0.222222 -0.111111  0.222222    0.00137174  39 t-inv F
 -0.111111 -0.222222  0.222222    0.00137174  39 t-inv F
  0.111111  0.222222 -0.222222    0.00137174  39 t-inv F
  0.111111 -0.222222 -0.111111    0.00137174  40 t-inv F
  0.111111 -0.111111 -0.222222    0.00137174  40 t-inv F
 -0.111111  0.111111  0.222222    0.00137174  40 t-inv F
  0.111111 -0.111111  0.222222    0.00137174  40 t-inv F
 -0.111111  0.111111 -0.222222    0.00137174  40 t-inv F
 -0.222222  0.111111 -0.111111    0.00137174  40 t-inv F
  0.222222 -0.111111  0.111111    0.00137174  40 t-inv F
  0.222222  0.111111 -0.111111    0.00137174  40 t-inv F
 -0.222222 -0.111111  0.111111    0.00137174  40 t-inv F
 -0.111111 -0.222222  0.111111    0.00137174  40 t-inv F
  0.111111  0.222222 -0.111111    0.00137174  40 t-inv F
 -0.333333 -0.333333 -0.111111    0.00137174  41 t-inv F
 -0.333333 -0.111111 -0.333333    0.00137174  41 t-inv F
  0.333333  0.111111  0.333333    0.00137174  41 t-inv F
  0.111111  0.333333  0.333333    0.00137174  41 t-inv F
 -0.111111 -0.333333 -0.333333    0.00137174  41 t-inv F
 -0.444444 -0.333333 -0.111111    0.00137174  42 t-inv F
 -0.444444 -0.111111 -0.333333    0.00137174  42 t-inv F
  0.444444  0.111111  0.333333    0.00137174  42 t-inv F
  0.111111  0.444444  0.333333    0.00137174  42 t-inv F
 -0.111111 -0.444444 -0.333333    0.00137174  42 t-inv F
 -0.333333 -0.444444 -0.111111    0.00137174  42 t-inv F
  0.333333  0.444444  0.111111    0.00137174  42 t-inv F
  0.333333  0.111111  0.444444    0.00137174  42 t-inv F
 -0.333333 -0.111111 -0.444444    0.00137174  42 t-inv F
 -0.111111 -0.333333 -0.444444    0.00137174  42 t-inv F
  0.111111  0.333333  0.444444    0.00137174  42 t-inv F
  0.444444 -0.333333 -0.111111    0.00137174  43 t-inv F
  0.444444 -0.111111 -0.333333    0.00137174  43 t-inv F
 -0.444444  0.111111  0.333333    0.00137174  43 t-inv F
  0.111111 -0.444444  0.333333    0.00137174  43 t-inv F
 -0.111111  0.444444 -0.333333    0.00137174  43 t-inv F
 -0.333333  0.444444 -0.111111    0.00137174  43 t-inv F
  0.333333 -0.444444  0.111111    0.00137174  43 t-inv F
  0.333333  0.111111 -0.444444    0.00137174  43 t-inv F
 -0.333333 -0.111111  0.444444    0.00137174  43 t-inv F
 -0.111111 -0.333333  0.444444    0.00137174  43 t-inv F
  0.111111  0.333333 -0.444444    0.00137174  43 t-inv F
  0.333333 -0.333333 -0.111111    0.00137174  44 t-inv F
  0.333333 -0.111111 -0.333333    0.00137174  44 t-inv F
 -0.333333  0.111111  0.333333    0.00137174  44 t-inv F
  0.111111 -0.333333  0.333333    0.00137174  44 t-inv F
 -0.111111  0.333333 -0.333333    0.00137174  44 t-inv F
 -0.333333  0.333333 -0.111111    0.00137174  44 t-inv F
  0.333333 -0.333333  0.111111    0.00137174  44 t-inv F
  0.333333  0.111111 -0.333333    0.00137174  44 t-inv F
 -0.333333 -0.111111  0.333333    0.00137174  44 t-inv F
 -0.111111 -0.333333  0.333333    0.00137174  44 t-inv F
  0.111111  0.333333 -0.333333    0.00137174  44 t-inv F
  0.222222 -0.333333 -0.111111    0.00137174  45 t-inv F
  0.222222 -0.111111 -0.333333    0.00137174  45 t-inv F
 -0.222222  0.111111  0.333333    0.00137174  45 t-inv F
  0.111111 -0.222222  0.333333    0.00137174  45 t-inv F
 -0.111111  0.222222 -0.333333    0.00137174  45 t-inv F
 -0.333333  0.222222 -0.111111    0.00137174  45 t-inv F
  0.333333 -0.222222  0.111111    0.00137174  45 t-inv F
  0.333333  0.111111 -0.222222    0.00137174  45 t-inv F
 -0.333333 -0.111111  0.222222    0.00137174  45 t-inv F
 -0.111111 -0.333333  0.222222    0.00137174  45 t-inv F
  0.111111  0.333333 -0.222222    0.00137174  45 t-inv F
  0.111111 -0.333333 -0.111111    0.00137174  46 t-inv F
  0.111111 -0.111111 -0.333333    0.00137174  46 t-inv F
 -0.111111  0.111111  0.333333    0.00137174  46 t-inv F
  0.111111 -0.111111  0.333333    0.00137174  46 t-inv F
 -0.111111  0.111111 -0.333333    0.00137174  46 t-inv F
 -0.333333  0.111111 -0.111111    0.00137174  46 t-inv F
  0.333333 -0.111111  0.111111    0.00137174  46 t-inv F
  0.333333  0.111111 -0.111111    0.00137174  46 t-inv F
 -0.333333 -0.111111  0.111111    0.00137174  46 t-inv F
 -0.111111 -0.333333  0.111111    0.00137174  46 t-inv F
  0.111111  0.333333 -0.111111    0.00137174  46 t-inv F
 -0.444444 -0.444444 -0.111111    0.00137174  47 t-inv F
 -0.444444 -0.111111 -0.444444    0.00137174  47 t-inv F
  0.444444  0.111111  0.444444    0.00137174  47 t-inv F
  0.111111  0.444444  0.444444    0.00137174  47 t-inv F
 -0.111111 -0.444444 -0.444444    0.00137174  47 t-inv F
  0.444444 -0.444444 -0.111111    0.00137174  48 t-inv F
  0.444444 -0.111111 -0.444444    0.00137174  48 t-inv F
 -0.444444  0.111111  0.444444    0.00137174  48 t-inv F
  0.111111 -0.444444  0.444444    0.00137174  48 t-inv F
 -0.111111  0.444444 -0.444444    0.00137174  48 t-inv F
 -0.444444  0.444444 -0.111111    0.00137174  48 t-inv F
  0.444444 -0.444444  0.111111    0.00137174  48 t-inv F
  0.444444  0.111111 -0.444444    0.00137174  48 t-inv F
 -0.444444 -0.111111  0.444444    0.00137174  48 t-inv F
 -0.111111 -0.444444  0.444444    0.00137174  48 t-inv F
  0.111111  0.444444 -0.444444    0.00137174  48 t-inv F
  0.333333 -0.444444 -0.111111    0.00137174  49 t-inv F
  0.333333 -0.111111 -0.444444    0.00137174  49 t-inv F
 -0.333333  0.111111  0.444444    0.00137174  49 t-inv F
  0.111111 -0.333333  0.444444    0.00137174  49 t-inv F
 -0.111111  0.333333 -0.444444    0.00137174  49 t-inv F
 -0.444444  0.333333 -0.111111    0.00137174  49 t-inv F
  0.444444 -0.333333  0.111111    0.00137174  49 t-inv F
  0.444444  0.111111 -0.333333    0.00137174  49 t-inv F
 -0.444444 -0.111111  0.333333    0.00137174  49 t-inv F
 -0.111111 -0.444444  0.333333    0.00137174  49 t-inv F
  0.111111  0.444444 -0.333333    0.00137174  49 t-inv F
  0.222222 -0.444444 -0.111111    0.00137174  50 t-inv F
  0.222222 -0.111111 -0.444444    0.00137174  50 t-inv F
 -0.222222  0.111111  0.444444    0.00137174  50 t-inv F
  0.111111 -0.222222  0.444444    0.00137174  50 t-inv F
 -0.111111  0.222222 -0.444444    0.00137174  50 t-inv F
 -0.444444  0.222222 -0.111111    0.00137174  50 t-inv F
  0.444444 -0.222222  0.111111    0.00137174  50 t-inv F
  0.444444  0.111111 -0.222222    0.00137174  50 t-inv F
 -0.444444 -0.111111  0.222222    0.00137174  50 t-inv F
 -0.111111 -0.444444  0.222222    0.00137174  50 t-inv F
  0.111111  0.444444 -0.222222    0.00137174  50 t-inv F
  0.111111 -0.444444 -0.111111    0.00137174  51 t-inv F
  0.111111 -0.111111 -0.444444    0.00137174  51 t-inv F
 -0.111111  0.111111  0.444444    0.00137174  51 t-inv F
  0.111111 -0.111111  0.444444    0.00137174  51 t-inv F
 -0.111111  0.111111 -0.444444    0.00137174  51 t-inv F
 -0.444444  0.111111 -0.111111    0.00137174  51 t-inv F
  0.444444 -0.111111  0.111111    0.00137174  51 t-inv F
  0.444444  0.111111 -0.111111    0.00137174  51 t-inv F
 -0.444444 -0.111111  0.111111    0.00137174  51 t-inv F
 -0.111111 -0.444444  0.111111    0.00137174  51 t-inv F
  0.111111  0.444444 -0.111111    0.00137174  51 t-inv F
  0.444444  0.444444 -0.111111    0.00137174  52 t-inv F
  0.444444 -0.111111  0.444444    0.00137174  52 t-inv F
 -0.444444  0.111111 -0.444444    0.00137174  52 t-inv F
  0.111111 -0.444444 -0.444444    0.00137174  52 t-inv F
 -0.111111  0.444444  0.444444    0.00137174  52 t-inv F
  0.333333  0.444444 -0.111111    0.00137174  53 t-inv F
  0.333333 -0.111111  0.444444    0.00137174  53 t-inv F
 -0.333333  0.111111 -0.444444    0.00137174  53 t-inv F
  0.111111 -0.333333 -0.444444    0.00137174  53 t-inv F
 -0.111111  0.333333  0.444444    0.00137174  53 t-inv F
  0.444444  0.333333 -0.111111    0.00137174  53 t-inv F
 -0.444444 -0.333333  0.111111    0.00137174  53 t-inv F
 -0.444444  0.111111 -0.333333    0.00137174  53 t-inv F
  0.444444 -0.111111  0.333333    0.00137174  53 t-inv F
 -0.111111  0.444444  0.333333    0.00137174  53 t-inv F
  0.111111 -0.444444 -0.333333    0.00137174  53 t-inv F
  0.222222  0.444444 -0.111111    0.00137174  54 t-inv F
  0.222222 -0.111111  0.444444    0.00137174  54 t-inv F
 -0.222222  0.111111 -0.444444    0.00137174  54 t-inv F
  0.111111 -0.222222 -0.444444    0.00137174  54 t-inv F
 -0.111111  0.222222  0.444444    0.00137174  54 t-inv F
  0.444444  0.222222 -0.111111    0.00137174  54 t-inv F
 -0.444444 -0.222222  0.111111    0.00137174  54 t-inv F
 -0.444444  0.111111 -0.222222    0.00137174  54 t-inv F
  0.444444 -0.111111  0.222222    0.00137174  54 t-inv F
 -0.111111  0.444444  0.222222    0.00137174  54 t-inv F
  0.111111 -0.444444 -0.222222    0.00137174  54 t-inv F
  0.333333  0.333333 -0.111111    0.00137174  55 t-inv F
  0.333333 -0.111111  0.333333    0.00137174  55 t-inv F
 -0.333333  0.111111 -0.333333    0.00137174  55 t-inv F
  0.111111 -0.333333 -0.333333    0.00137174  55 t-inv F
 -0.111111  0.333333  0.333333    0.00137174  55 t-inv F
  0.222222  0.333333 -0.111111    0.00137174  56 t-inv F
  0.222222 -0.111111  0.333333    0.00137174  56 t-inv F
 -0.222222  0.111111 -0.333333    0.00137174  56 t-inv F
  0.111111 -0.222222 -0.333333    0.00137174  56 t-inv F
 -0.111111  0.222222  0.333333    0.00137174  56 t-inv F
  0.333333  0.222222 -0.111111    0.00137174  56 t-inv F
 -0.333333 -0.222222  0.111111    0.00137174  56 t-inv F
 -0.333333  0.111111 -0.222222    0.00137174  56 t-inv F
  0.333333 -0.111111  0.222222    0.00137174  56 t-inv F
 -0.111111  0.333333  0.222222    0.00137174  56 t-inv F
  0.111111 -0.333333 -0.222222    0.00137174  56 t-inv F
  0.222222  0.222222 -0.111111    0.00137174  57 t-inv F
  0.222222 -0.111111  0.222222    0.00137174  57 t-inv F
 -0.222222  0.111111 -0.222222    0.00137174  57 t-inv F
  0.111111 -0.222222 -0.222222    0.00137174  57 t-inv F
 -0.111111  0.222222  0.222222    0.00137174  57 t-inv F
 -0.222222 -0.222222 -0.222222    0.00137174  58 t-inv F
 -0.333333 -0.222222 -0.222222    0.00137174  59 t-inv F
  0.222222  0.333333  0.222222    0.00137174  59 t-inv F
 -0.222222 -0.333333 -0.222222    0.00137174  59 t-inv F
  0.222222  0.222222  0.333333    0.00137174  59 t-inv F
 -0.222222 -0.222222 -0.333333    0.00137174  59 t-inv F
 -0.444444 -0.222222 -0.222222    0.00137174  60 t-inv F
  0.222222  0.444444  0.222222    0.00137174  60 t-inv F
 -0.222222 -0.444444 -0.222222    0.00137174  60 t-inv F
  0.222222  0.222222  0.444444    0.00137174  60 t-inv F
 -0.222222 -0.222222 -0.444444    0.00137174  60 t-inv F
  0.444444 -0.222222 -0.222222    0.00137174  61 t-inv F
  0.222222 -0.444444  0.222222    0.00137174  61 t-inv F
 -0.222222  0.444444 -0.222222    0.00137174  61 t-inv F
  0.222222  0.222222 -0.444444    0.00137174  61 t-inv F
 -0.222222 -0.222222  0.444444    0.00137174  61 t-inv F
  0.333333 -0.222222 -0.222222    0.00137174  62 t-inv F
  0.222222 -0.333333  0.222222    0.00137174  62 t-inv F
 -0.222222  0.333333 -0.222222    0.00137174  62 t-inv F
  0.222222  0.222222 -0.333333    0.00137174  62 t-inv F
 -0.222222 -0.222222  0.333333    0.00137174  62 t-inv F
  0.222222 -0.222222 -0.222222    0.00137174  63 t-inv F
  0.222222 -0.222222  0.222222    0.00137174  63 t-inv F
 -0.222222  0.222222 -0.222222    0.00137174  63 t-inv F
  0.222222  0.222222 -0.222222    0.00137174  63 t-inv F
 -0.222222 -0.222222  0.222222    0.00137174  63 t-inv F
 -0.333333 -0.333333 -0.222222    0.00137174  64 t-inv F
 -0.333333 -0.222222 -0.333333    0.00137174  64 t-inv F
  0.333333  0.222222  0.333333    0.00137174  64 t-inv F
  0.222222  0.333333  0.333333    0.00137174  64 t-inv F
 -0.222222 -0.333333 -0.333333    0.00137174  64 t-inv F
 -0.444444 -0.333333 -0.222222    0.00137174  65 t-inv F
 -0.444444 -0.222222 -0.333333    0.00137174  65 t-inv F
  0.444444  0.222222  0.333333    0.00137174  65 t-inv F
  0.222222  0.444444  0.333333    0.00137174  65 t-inv F
 -0.222222 -0.444444 -0.333333    0.00137174  65 t-inv F
 -0.333333 -0.444444 -0.222222    0.00137174  65 t-inv F
  0.333333  0.444444  0.222222    0.00137174  65 t-inv F
  0.333333  0.222222  0.444444    0.00137174  65 t-inv F
 -0.333333 -0.222222 -0.444444    0.00137174  65 t-inv F
 -0.222222 -0.333333 -0.444444    0.00137174  65 t-inv F
  0.222222  0.333333  0.444444    0.00137174  65 t-inv F
  0.444444 -0.333333 -0.222222    0.00137174  66 t-inv F
  0.444444 -0.222222 -0.333333    0.00137174  66 t-inv F
 -0.444444  0.222222  0.333333    0.00137174  66 t-inv F
  0.222222 -0.444444  0.333333    0.00137174  66 t-inv F
 -0.222222  0.444444 -0.333333    0.00137174  66 t-inv F
 -0.333333  0.444444 -0.222222    0.00137174  66 t-inv F
  0.333333 -0.444444  0.222222    0.00137174  66 t-inv F
  0.333333  0.222222 -0.444444    0.00137174  66 t-inv F
 -0.333333 -0.222222  0.444444    0.00137174  66 t-inv F
 -0.222222 -0.333333  0.444444    0.00137174  66 t-inv F
  0.222222  0.333333 -0.444444    0.00137174  66 t-inv F
  0.333333 -0.333333 -0.222222    0.00137174  67 t-inv F
  0.333333 -0.222222 -0.333333    0.00137174  67 t-inv F
 -0.333333  0.222222  0.333333    0.00137174  67 t-inv F
  0.222222 -0.333333  0.333333    0.00137174  67 t-inv F
 -0.222222  0.333333 -0.333333    0.00137174  67 t-inv F
 -0.333333  0.333333 -0.222222    0.00137174  67 t-inv F
  0.333333 -0.333333  0.222222    0.00137174  67 t-inv F
  0.333333  0.222222 -0.333333    0.00137174  67 t-inv F
 -0.333333 -0.222222  0.333333    0.00137174  67 t-inv F
 -0.222222 -0.333333  0.333333    0.00137174  67 t-inv F
  0.222222  0.333333 -0.333333    0.00137174  67 t-inv F
  0.222222 -0.333333 -0.222222    0.00137174  68 t-inv F
  0.222222 -0.222222 -0.333333    0.00137174  68 t-inv F
 -0.222222  0.222222  0.333333    0.00137174  68 t-inv F
  0.222222 -0.222222  0.333333    0.00137174  68 t-inv F
 -0.222222  0.222222 -0.333333    0.00137174  68 t-inv F
 -0.333333  0.222222 -0.222222    0.00137174  68 t-inv F
  0.333333 -0.222222  0.222222    0.00137174  68 t-inv F
  0.333333  0.222222 -0.222222    0.00137174  68 t-inv F
 -0.333333 -0.222222  0.222222    0.00137174  68 t-inv F
 -0.222222 -0.333333  0.222222    0.00137174  68 t-inv F
  0.222222  0.333333 -0.222222    0.00137174  68 t-inv F
 -0.444444 -0.444444 -0.222222    0.00137174  69 t-inv F
 -0.444444 -0.222222 -0.444444    0.00137174  69 t-inv F
  0.444444  0.222222  0.444444    0.00137174  69 t-inv F
  0.222222  0.444444  0.444444    0.00137174  69 t-inv F
 -0.222222 -0.444444 -0.444444    0.00137174  69 t-inv F
  0.444444 -0.444444 -0.222222    0.00137174  70 t-inv F
  0.444444 -0.222222 -0.444444    0.00137174  70 t-inv F
 -0.444444  0.222222  0.444444    0.00137174  70 t-inv F
  0.222222 -0.444444  0.444444    0.00137174  70 t-inv F
 -0.222222  0.444444 -0.444444    0.00137174  70 t-inv F
 -0.444444  0.444444 -0.222222    0.00137174  70 t-inv F
  0.444444 -0.444444  0.222222    0.00137174  70 t-inv F
  0.444444  0.222222 -0.444444    0.00137174  70 t-inv F
 -0.444444 -0.222222  0.444444    0.00137174  70 t-inv F
 -0.222222 -0.444444  0.444444    0.00137174  70 t-inv F
  0.222222  0.444444 -0.444444    0.00137174  70 t-inv F
  0.333333 -0.444444 -0.222222    0.00137174  71 t-inv F
  0.333333 -0.222222 -0.444444    0.00137174  71 t-inv F
 -0.333333  0.222222  0.444444    0.00137174  71 t-inv F
  0.222222 -0.333333  0.444444    0.00137174  71 t-inv F
 -0.222222  0.333333 -0.444444    0.00137174  71 t-inv F
 -0.444444  0.333333 -0.222222    0.00137174  71 t-inv F
  0.444444 -0.333333  0.222222    0.00137174  71 t-inv F
  0.444444  0.222222 -0.333333    0.00137174  71 t-inv F
 -0.444444 -0.222222  0.333333    0.00137174  71 t-inv F
 -0.222222 -0.444444  0.333333    0.00137174  71 t-inv F
  0.222222  0.444444 -0.333333    0.00137174  71 t-inv F
  0.222222 -0.444444 -0.222222    0.00137174  72 t-inv F
  0.222222 -0.222222 -0.444444    0.00137174  72 t-inv F
 -0.222222  0.222222  0.444444    0.00137174  72 t-inv F
  0.222222 -0.222222  0.444444    0.00137174  72 t-inv F
 -0.222222  0.222222 -0.444444    0.00137174  72 t-inv F
 -0.444444  0.222222 -0.222222    0.00137174  72 t-inv F
  0.444444 -0.222222  0.222222    0.00137174  72 t-inv F
  0.444444  0.222222 -0.222222    0.00137174  72 t-inv F
 -0.444444 -0.222222  0.222222    0.00137174  72 t-inv F
 -0.222222 -0.444444  0.222222    0.00137174  72 t-inv F
  0.222222  0.444444 -0.222222    0.00137174  72 t-inv F
  0.444444  0.444444 -0.222222    0.00137174  73 t-inv F
  0.444444 -0.222222  0.444444    0.00137174  73 t-inv F
 -0.444444  0.222222 -0.444444    0.00137174  73 t-inv F
  0.222222 -0.444444 -0.444444    0.00137174  73 t-inv F
 -0.222222  0.444444  0.444444    0.00137174  73 t-inv F
  0.333333  0.444444 -0.222222    0.00137174  74 t-inv F
  0.333333 -0.222222  0.444444    0.00137174  74 t-inv F
 -0.333333  0.222222 -0.444444    0.00137174  74 t-inv F
  0.222222 -0.333333 -0.444444    0.00137174  74 t-inv F
 -0.222222  0.333333  0.444444    0.00137174  74 t-inv F
  0.444444  0.333333 -0.222222    0.00137174  74 t-inv F
 -0.444444 -0.333333  0.222222    0.00137174  74 t-inv F
 -0.444444  0.222222 -0.333333    0.00137174  74 t-inv F
  0.444444 -0.222222  0.333333    0.00137174  74 t-inv F
 -0.222222  0.444444  0.333333    0.00137174  74 t-inv F
  0.222222 -0.444444 -0.333333    0.00137174  74 t-inv F
  0.333333  0.333333 -0.222222    0.00137174  75 t-inv F
  0.333333 -0.222222  0.333333    0.00137174  75 t-inv F
 -0.333333  0.222222 -0.333333    0.00137174  75 t-inv F
  0.222222 -0.333333 -0.333333    0.00137174  75 t-inv F
 -0.222222  0.333333  0.333333    0.00137174  75 t-inv F
 -0.333333 -0.333333 -0.333333    0.00137174  76 t-inv F
 -0.444444 -0.333333 -0.333333    0.00137174  77 t-inv F
  0.333333  0.444444  0.333333    0.00137174  77 t-inv F
 -0.333333 -0.444444 -0.333333    0.00137174  77 t-inv F
  0.333333  0.333333  0.444444    0.00137174  77 t-inv F
 -0.333333 -0.333333 -0.444444    0.00137174  77 t-inv F
  0.444444 -0.333333 -0.333333    0.00137174  78 t-inv F
  0.333333 -0.444444  0.333333    0.00137174  78 t-inv F
 -0.333333  0.444444 -0.333333    0.00137174  78 t-inv F
  0.333333  0.333333 -0.444444    0.00137174  78 t-inv F
 -0.333333 -0.333333  0.444444    0.00137174  78 t-inv F
  0.333333 -0.333333 -0.333333    0.00137174  79 t-inv F
  0.333333 -0.333333  0.333333    0.00137174  79 t-inv F
 -0.333333  0.333333 -0.333333    0.00137174  79 t-inv F
  0.333333  0.333333 -0.333333    0.00137174  79 t-inv F
 -0.333333 -0.333333  0.333333    0.00137174  79 t-inv F
 -0.444444 -0.444444 -0.333333    0.00137174  80 t-inv F
 -0.444444 -0.333333 -0.444444    0.00137174  80 t-inv F
  0.444444  0.333333  0.444444    0.00137174  80 t-inv F
  0.333333  0.444444  0.444444    0.00137174  80 t-inv F
 -0.333333 -0.444444 -0.444444    0.00137174  80 t-inv F
  0.444444 -0.444444 -0.333333    0.00137174  81 t-inv F
  0.444444 -0.333333 -0.444444    0.00137174  81 t-inv F
 -0.444444  0.333333  0.444444    0.00137174  81 t-inv F
  0.333333 -0.444444  0.444444    0.00137174  81 t-inv F
 -0.333333  0.444444 -0.444444    0.00137174  81 t-inv F
 -0.444444  0.444444 -0.333333    0.00137174  81 t-inv F
  0.444444 -0.444444  0.333333    0.00137174  81 t-inv F
  0.444444  0.333333 -0.444444    0.00137174  81 t-inv F
 -0.444444 -0.333333  0.444444    0.00137174  81 t-inv F
 -0.333333 -0.444444  0.444444    0.00137174  81 t-inv F
  0.333333  0.444444 -0.444444    0.00137174  81 t-inv F
  0.333333 -0.444444 -0.333333    0.00137174  82 t-inv F
  0.333333 -0.333333 -0.444444    0.00137174  82 t-inv F
 -0.333333  0.333333  0.444444    0.00137174  82 t-inv F
  0.333333 -0.333333  0.444444    0.00137174  82 t-inv F
 -0.333333  0.333333 -0.444444    0.00137174  82 t-inv F
 -0.444444  0.333333 -0.333333    0.00137174  82 t-inv F
  0.444444 -0.333333  0.333333    0.00137174  82 t-inv F
  0.444444  0.333333 -0.333333    0.00137174  82 t-inv F
 -0.444444 -0.333333  0.333333    0.00137174  82 t-inv F
 -0.333333 -0.444444  0.333333    0.00137174  82 t-inv F
  0.333333  0.444444 -0.333333    0.00137174  82 t-inv F
  0.444444  0.444444 -0.333333    0.00137174  83 t-inv F
  0.444444 -0.333333  0.444444    0.00137174  83 t-inv F
 -0.444444  0.333333 -0.444444    0.00137174  83 t-inv F
  0.333333 -0.444444 -0.444444    0.00137174  83 t-inv F
 -0.333333  0.444444  0.444444    0.00137174  83 t-inv F
 -0.444444 -0.444444 -0.444444    0.00137174  84 t-inv F
  0.444444 -0.444444 -0.444444    0.00137174  85 t-inv F
  0.444444 -0.444444  0.444444    0.00137174  85 t-inv F
 -0.444444  0.444444 -0.444444    0.00137174  85 t-inv F
  0.444444  0.444444 -0.444444    0.00137174  85 t-inv F
 -0.444444 -0.444444  0.444444    0.00137174  85 t-inv F


--------------------------------------------------------------------------------------------------------




 Dimension of arrays:
   k-points           NKPTS =     85   k-points in BZ     NKDIM =     85   number of bands    NBANDS=     32
   number of dos      NEDOS =    301   number of ions     NIONS =      5
   non local maximal  LDIM  =      6   non local SUM 2l+1 LMDIM =     18
   total plane-waves  NPLWV = 512000
   max r-space proj   IRMAX =      1   max aug-charges    IRDMAX= 143602
   dimension x,y,z NGX =    80 NGY =   80 NGZ =   80
   dimension x,y,z NGXF=   160 NGYF=  160 NGZF=  160
   support grid    NGXF=   160 NGYF=  160 NGZF=  160
   ions per type =               2   3
   NGX,Y,Z   is equivalent  to a cutoff of  12.48, 12.48, 12.48 a.u.
   NGXF,Y,Z  is equivalent  to a cutoff of  24.96, 24.96, 24.96 a.u.

 SYSTEM =  unknown system                          
 POSCAR =  Generated by cif2cell 1.2.10.  :  Failed

 Startparameter for this run:
   NWRITE =      2    write-flag & timer
   PREC   = accura    normal or accurate (medium, high low for compatibility)
   ISTART =      1    job   : 0-new  1-cont  2-samecut
   ICHARG =      0    charge: 1-file 2-atom 10-const
   ISPIN  =      1    spin polarized calculation?
   LNONCOLLINEAR =      F non collinear calculations
   LSORBIT =      F    spin-orbit coupling
   INIWAV =      1    electr: 0-lowe 1-rand  2-diag
   LASPH  =      T    aspherical Exc in radial PAW
   METAGGA=      F    non-selfconsistent MetaGGA calc.

 Electronic Relaxation 1
   ENCUT  =  500.0 eV  36.75 Ry    6.06 a.u.  19.43 19.43 19.43*2*pi/ulx,y,z
   ENINI  =  500.0     initial cutoff
   ENAUG  =  446.8 eV  augmentation charge cutoff
   NELM   =     60;   NELMIN=  4; NELMDL=  0     # of ELM steps 
   EDIFF  = 0.5E-05   stopping-criterion for ELM
   LREAL  =      F    real-space projection
   NLSPLINE    = F    spline interpolate recip. space projectors
   LCOMPAT=      F    compatible to vasp.4.4
   GGA_COMPAT  = T    GGA compatible to vasp.4.4-vasp.4.6
   LMAXPAW     = -100 max onsite density
   LMAXMIX     =    4 max onsite mixed and CHGCAR
   VOSKOWN=      0    Vosko Wilk Nusair interpolation
   ROPT   =    0.00000   0.00000
 Ionic relaxation
   EDIFFG = 0.5E-04   stopping-criterion for IOM
   NSW    =      1    number of steps for IOM
   NBLOCK =      1;   KBLOCK =      1    inner block; outer block 
   IBRION =      8    ionic relax: 0-MD 1-quasi-New 2-CG
   NFREE  =      0    steps in history (QN), initial steepest desc. (CG)
   ISIF   =      3    stress and relaxation
   IWAVPR =     11    prediction:  0-non 1-charg 2-wave 3-comb
   ISYM   =      2    0-nonsym 1-usesym 2-fastsym
   LCORR  =      T    Harris-Foulkes like correction to forces

   POTIM  = 0.2000    time-step for ionic-motion
   TEIN   =    0.0    initial temperature
   TEBEG  =    0.0;   TEEND  =   0.0 temperature during run
   SMASS  =  -3.00    Nose mass-parameter (am)
   estimated Nose-frequenzy (Omega)   =  0.10E-29 period in steps =****** mass=  -0.259E-26a.u.
   SCALEE = 1.0000    scale energy and forces
   NPACO  =    256;   APACO  = 16.0  distance and # of slots for P.C.
   PSTRESS=    0.0 pullay stress

  Mass of Ions in am
   POMASS = 208.98 78.96
  Ionic Valenz
   ZVAL   =  15.00  6.00
  Atomic Wigner-Seitz radii
   RWIGS  =  -1.00 -1.00
  virtual crystal weights 
   VCA    =   1.00  1.00
   NELECT =      48.0000    total number of electrons
   NUPDOWN=      -1.0000    fix difference up-down

 DOS related values:
   EMIN   =  10.00;   EMAX   =-10.00  energy-range for DOS
   EFERMI =   0.00
   ISMEAR =    -5;   SIGMA  =   0.05  broadening in eV -4-tet -1-fermi 0-gaus

 Electronic relaxation 2 (details)
   IALGO  =     38    algorithm
   LDIAG  =      T    sub-space diagonalisation (order eigenvalues)
   LSUBROT=      F    optimize rotation matrix (better conditioning)
   TURBO    =      0    0=normal 1=particle mesh
   IRESTART =      0    0=no restart 2=restart with 2 vectors
   NREBOOT  =      0    no. of reboots
   NMIN     =      0    reboot dimension
   EREF     =   0.00    reference energy to select bands
   IMIX   =      4    mixing-type and parameters
     AMIX     =   0.40;   BMIX     =  1.00
     AMIX_MAG =   1.60;   BMIX_MAG =  1.00
     AMIN     =   0.10
     WC   =   100.;   INIMIX=   1;  MIXPRE=   1;  MAXMIX= -45

 Intra band minimization:
   WEIMIN = 0.0010     energy-eigenvalue tresh-hold
   EBREAK =  0.39E-07  absolut break condition
   DEPER  =   0.30     relativ break condition  

   TIME   =   0.40     timestep for ELM

  volume/ion in A,a.u.               =      31.55       212.94
  Fermi-wavevector in a.u.,A,eV,Ry     =   1.101067  2.080716 16.495012  1.212349
  Thomas-Fermi vector in A             =   2.237489

 Write flags
   LWAVE        =      T    write WAVECAR
   LDOWNSAMPLE  =      F    k-point downsampling of WAVECAR
   LCHARG       =      T    write CHGCAR
   LVTOT        =      F    write LOCPOT, total local potential
   LVHAR        =      F    write LOCPOT, Hartree potential only
   LELF         =      F    write electronic localiz. function (ELF)
   LORBIT       =      0    0 simple, 1 ext, 2 COOP (PROOUT), +10 PAW based schemes


 Dipole corrections
   LMONO  =      F    monopole corrections only (constant potential shift)
   LDIPOL =      F    correct potential (dipole corrections)
   IDIPOL =      0    1-x, 2-y, 3-z, 4-all directions 
   EPSILON=  1.0000000 bulk dielectric constant

 Exchange correlation treatment:
   GGA     =    --    GGA type
   LEXCH   =     8    internal setting for exchange type
   VOSKOWN=      0    Vosko Wilk Nusair interpolation
   LHFCALC =     F    Hartree Fock is set to
   LHFONE  =     F    Hartree Fock one center treatment
   AEXX    =    0.0000 exact exchange contribution

 Linear response parameters
   LEPSILON=     T    determine dielectric tensor
   LRPA    =     F    only Hartree local field effects (RPA)
   LNABLA  =     F    use nabla operator in PAW spheres
   LVEL    =     F    velocity operator in full k-point grid
   LINTERFAST=   F  fast interpolation
   KINTER  =     0    interpolate to denser k-point grid
   CSHIFT  =0.1000    complex shift for real part using Kramers Kronig
   OMEGAMAX=  -1.0    maximum frequency
   DEG_THRESHOLD= 0.2000000E-02 threshold for treating states as degnerate
   RTIME   =   -0.100 relaxation time in fs
  (WPLASMAI=    0.000 imaginary part of plasma frequency in eV, 0.658/RTIME)
   DFIELD  = 0.0000000 0.0000000 0.0000000 field for delta impulse in time

 Orbital magnetization related:
   ORBITALMAG=     F  switch on orbital magnetization
   LCHIMAG   =     F  perturbation theory with respect to B field
   DQ        =  0.001000  dq finite difference perturbation B field
   LLRAUG    =     F  two centre corrections for induced B field



--------------------------------------------------------------------------------------------------------


 linear response using symmetry
 charge density and potential will be updated during run
 non-spin polarized calculation
 Variant of blocked Davidson
 Davidson routine will perform the subspace rotation
 perform sub-space diagonalisation
    after iterative eigenvector-optimisation
 modified Broyden-mixing scheme, WC =      100.0
 initial mixing is a Kerker type mixing with AMIX =  0.4000 and BMIX =      1.0000
 Hartree-type preconditioning will be used
 using additional bands            8
 reciprocal scheme for non local part
 use partial core corrections
 calculate Harris-corrections to forces   (improved forces if not selfconsistent)
 use gradient corrections 
 use of overlap-Matrix (Vanderbilt PP)
 Fermi weights with tetrahedron method with Bloechl corrections


--------------------------------------------------------------------------------------------------------


  energy-cutoff  :      500.00
  volume of cell :      157.77
      direct lattice vectors                 reciprocal lattice vectors
     2.419021000  0.000000000 10.377505361     0.275593584  0.000000000  0.032120758
    -1.209510500  2.094933638 10.377505361    -0.137796792  0.238671045  0.032120758
    -1.209510500 -2.094933638 10.377505361    -0.137796792 -0.238671045  0.032120758

  length of vectors
    10.655715842 10.655715842 10.655715842     0.277459126  0.277459126  0.277459126



 old parameters found on file WAVECAR:
  energy-cutoff  :      500.00
  volume of cell :      157.77
      direct lattice vectors                 reciprocal lattice vectors
     2.419021000  0.000000000 10.377505361     0.275593584  0.000000000  0.032120758
    -1.209510500  2.094933638 10.377505361    -0.137796792  0.238671045  0.032120758
    -1.209510500 -2.094933638 10.377505361    -0.137796792 -0.238671045  0.032120758

  length of vectors


 k-points in units of 2pi/SCALE and weight: Generated by cif2cell 1.2.10. k-space re
   0.00000000  0.00000000  0.00000000       0.001
   0.12829696  0.00000000  0.01495316       0.008
   0.25659392  0.00000000  0.02990632       0.008
   0.38489088  0.00000000  0.04485949       0.008
   0.51318783  0.00000000  0.05981265       0.008
   0.06414848  0.11110843  0.02990632       0.008
   0.19244544  0.11110843  0.04485949       0.016
   0.32074240  0.11110843  0.05981265       0.016
   0.44903936  0.11110843  0.07476581       0.016
  -0.57733631  0.11110843 -0.04485949       0.016
  -0.44903936  0.11110843 -0.02990632       0.016
  -0.32074240  0.11110843 -0.01495316       0.016
  -0.19244544  0.11110843  0.00000000       0.008
   0.12829696  0.22221685  0.05981265       0.008
   0.25659392  0.22221685  0.07476581       0.016
   0.38489088  0.22221685  0.08971897       0.016
  -0.64148479  0.22221685 -0.02990632       0.016
  -0.51318783  0.22221685 -0.01495316       0.016
  -0.38489088  0.22221685 -0.00000000       0.008
   0.19244544  0.33332528  0.08971897       0.008
   0.32074240  0.33332528  0.10467213       0.016
  -0.70563327  0.33332528 -0.01495316       0.016
  -0.57733631  0.33332528  0.00000000       0.008
   0.25659392  0.44443370  0.11962530       0.008
  -0.76978175  0.44443370 -0.00000000       0.008
   0.00000000  0.00000000  0.04485949       0.003
   0.12829696  0.00000000  0.05981265       0.008
   0.25659392  0.00000000  0.07476581       0.008
   0.38489088  0.00000000  0.08971897       0.008
  -0.64148479  0.00000000 -0.02990632       0.008
  -0.51318783  0.00000000 -0.01495316       0.008
  -0.38489088  0.00000000  0.00000000       0.008
  -0.25659392  0.00000000  0.01495316       0.008
   0.06414848  0.11110843  0.07476581       0.008
   0.19244544  0.11110843  0.08971897       0.016
   0.32074240  0.11110843  0.10467213       0.016
  -0.70563327  0.11110843 -0.01495316       0.016
  -0.57733631  0.11110843  0.00000000       0.016
  -0.44903936  0.11110843  0.01495316       0.016
  -0.32074240  0.11110843  0.02990632       0.016
   0.12829696  0.22221685  0.10467213       0.008
   0.25659392  0.22221685  0.11962530       0.016
  -0.76978175  0.22221685  0.00000000       0.016
  -0.64148479  0.22221685  0.01495316       0.016
  -0.51318783  0.22221685  0.02990632       0.016
  -0.38489088  0.22221685  0.04485949       0.016
   0.19244544  0.33332528  0.13457846       0.008
  -0.83393023  0.33332528  0.01495316       0.016
  -0.70563327  0.33332528  0.02990632       0.016
  -0.57733631  0.33332528  0.04485949       0.016
  -0.44903936  0.33332528  0.05981265       0.016
  -0.32074240 -0.55554213 -0.10467213       0.008
  -0.19244544 -0.55554213 -0.08971897       0.016
  -0.06414848 -0.55554213 -0.07476581       0.016
  -0.25659392 -0.44443370 -0.07476581       0.008
  -0.12829696 -0.44443370 -0.05981265       0.016
  -0.19244544 -0.33332528 -0.04485949       0.008
   0.00000000  0.00000000  0.08971897       0.003
   0.12829696  0.00000000  0.10467213       0.008
   0.25659392  0.00000000  0.11962530       0.008
  -0.76978175  0.00000000  0.00000000       0.008
  -0.64148479  0.00000000  0.01495316       0.008
  -0.51318783  0.00000000  0.02990632       0.008
   0.06414848  0.11110843  0.11962530       0.008
   0.19244544  0.11110843  0.13457846       0.016
  -0.83393023  0.11110843  0.01495316       0.016
  -0.70563327  0.11110843  0.02990632       0.016
  -0.57733631  0.11110843  0.04485949       0.016
   0.12829696  0.22221685  0.14953162       0.008
  -0.89807871  0.22221685  0.02990632       0.016
  -0.76978175  0.22221685  0.04485949       0.016
  -0.64148479  0.22221685  0.05981265       0.016
  -0.38489088 -0.66665055 -0.08971897       0.008
  -0.25659392 -0.66665055 -0.07476581       0.016
  -0.32074240 -0.55554213 -0.05981265       0.008
   0.00000000  0.00000000  0.13457846       0.003
   0.12829696  0.00000000  0.14953162       0.008
  -0.89807871  0.00000000  0.02990632       0.008
  -0.76978175  0.00000000  0.04485949       0.008
   0.06414848  0.11110843  0.16448478       0.008
  -0.96222719  0.11110843  0.04485949       0.016
  -0.83393023  0.11110843  0.05981265       0.016
  -0.44903936 -0.77775898 -0.07476581       0.008
  -0.00000000  0.00000000  0.17943794       0.003
  -1.02637567  0.00000000  0.05981265       0.008

 k-points in reciprocal lattice and weights: Generated by cif2cell 1.2.10. k-space re
   0.00000000  0.00000000  0.00000000       0.001
   0.11111111  0.00000000  0.00000000       0.008
   0.22222222  0.00000000  0.00000000       0.008
   0.33333333  0.00000000  0.00000000       0.008
   0.44444444  0.00000000  0.00000000       0.008
   0.11111111  0.11111111  0.00000000       0.008
   0.22222222  0.11111111  0.00000000       0.016
   0.33333333  0.11111111  0.00000000       0.016
   0.44444444  0.11111111  0.00000000       0.016
  -0.44444444  0.11111111  0.00000000       0.016
  -0.33333333  0.11111111  0.00000000       0.016
  -0.22222222  0.11111111  0.00000000       0.016
  -0.11111111  0.11111111  0.00000000       0.008
   0.22222222  0.22222222  0.00000000       0.008
   0.33333333  0.22222222  0.00000000       0.016
   0.44444444  0.22222222  0.00000000       0.016
  -0.44444444  0.22222222  0.00000000       0.016
  -0.33333333  0.22222222  0.00000000       0.016
  -0.22222222  0.22222222  0.00000000       0.008
   0.33333333  0.33333333  0.00000000       0.008
   0.44444444  0.33333333  0.00000000       0.016
  -0.44444444  0.33333333  0.00000000       0.016
  -0.33333333  0.33333333  0.00000000       0.008
   0.44444444  0.44444444  0.00000000       0.008
  -0.44444444  0.44444444  0.00000000       0.008
   0.11111111  0.11111111  0.11111111       0.003
   0.22222222  0.11111111  0.11111111       0.008
   0.33333333  0.11111111  0.11111111       0.008
   0.44444444  0.11111111  0.11111111       0.008
  -0.44444444  0.11111111  0.11111111       0.008
[...]
 A3 = (  -1.2095104998,  -2.0949336379,  10.3775053609)


Analysis of symmetry for initial positions (statically):
=====================================================================
 Subroutine PRICEL returns:
 Original cell was already a primitive cell.
 

 Routine SETGRP: Setting up the symmetry group for a 
 trigonal (rhombohedral) supercell.


 Subroutine GETGRP returns: Found 12 space group operations
 (whereof 12 operations were pure point group operations)
 out of a pool of 12 trial point group operations.


The static configuration has the point symmetry D_3d.


Analysis of symmetry for dynamics (positions and initial velocities):
=====================================================================
 Subroutine PRICEL returns:
 Original cell was already a primitive cell.
 

 Routine SETGRP: Setting up the symmetry group for a 
 trigonal (rhombohedral) supercell.


 Subroutine GETGRP returns: Found 12 space group operations
 (whereof 12 operations were pure point group operations)
 out of a pool of 12 trial point group operations.


The dynamic configuration has the point symmetry D_3d.


 Subroutine INISYM returns: Found 12 space group operations
 (whereof 12 operations are pure point group operations),
 and found     1 'primitive' translations



--------------------------------------------------------------------------------------------------------




 MACROSCOPIC STATIC DIELECTRIC TENSOR (including local field effects in DFT)
 ------------------------------------------------------
          18.616368     0.000000     0.000000
           0.000000    18.616368     0.000000
           0.000000     0.000000     8.413312
 ------------------------------------------------------


 PIEZOELECTRIC TENSOR (including local field effects)  for field in x, y, z        (e  Angst)
          XX          YY          ZZ          XY          YZ          ZX
  --------------------------------------------------------------------------------
  x    -0.00237    -0.00324     0.00529    -0.00000     0.00000    -0.00061
  y     0.00231    -0.01486     0.00425     0.00000    -0.00000    -0.00858
  z    -0.10217    -0.10217     0.16309    -0.00000    -0.00000     0.00000

 PIEZOELECTRIC TENSOR (including local field effects)  for field in x, y, z        (C/m^2)
          XX          YY          ZZ          XY          YZ          ZX
  --------------------------------------------------------------------------------
  x     0.00000     0.00000     0.00000     0.00000     0.00000     0.00000
  y     0.00000     0.00000     0.00000     0.00000     0.00000     0.00000
  z     0.00000     0.00000     0.00000     0.00000     0.00000     0.00000

 BORN EFFECTIVE CHARGES (including local field effects) (in e, cummulative output)
 ---------------------------------------------------------------------------------
 ion    1
    1     6.37535    -0.00000     0.00001
    2    -0.00092     6.37493    -0.00173
    3    -0.00000    -0.00000     1.79938
 ion    2
    1     6.37517     0.00000     0.00004
    2     0.00092     6.37493     0.00173
    3     0.00000    -0.00000     1.79157
 ion    3
    1    -4.04118     0.00000     0.00003
    2     0.00050    -4.04098     0.00081
    3     0.00000     0.00000    -0.66784
 ion    4
    1    -4.04118     0.00000    -0.00006
    2    -0.00050    -4.04098    -0.00081
    3    -0.00000     0.00000    -0.66652
 ion    5
    1    -4.66816    -0.00000    -0.00002
    2    -0.00000    -4.66790     0.00000
    3    -0.00000     0.00000    -2.25658

 INTERNAL STRAIN TENSOR FOR ION    1 for displacements in x,y,z  (eV/Angst):
          X           Y           Z          XY          YZ          ZX
  --------------------------------------------------------------------------------
  x    -1.28471     1.28471     0.00000    -0.00000     0.00000     3.22970
  y    -0.00000     0.00000     0.00000     1.28471     3.23080     0.00000
  z     3.06454     3.06454     1.59649     0.00000     0.00000     0.00000

 INTERNAL STRAIN TENSOR FOR ION    2 for displacements in x,y,z  (eV/Angst):
          X           Y           Z          XY          YZ          ZX
  --------------------------------------------------------------------------------
  x     1.28471    -1.28471    -0.00000     0.00000    -0.00000    -3.22970
  y     0.00000    -0.00000    -0.00000    -1.28471    -3.23080    -0.00000
  z    -3.06454    -3.06454    -1.59649    -0.00000    -0.00000    -0.00000

 INTERNAL STRAIN TENSOR FOR ION    3 for displacements in x,y,z  (eV/Angst):
          X           Y           Z          XY          YZ          ZX
  --------------------------------------------------------------------------------
  x     3.72612    -3.72612    -0.00000     0.00000    -0.00000    -8.19430
  y     0.00000    -0.00000    -0.00000    -3.72612    -8.22283    -0.00000
  z    -6.79137    -6.79137   -10.56219    -0.00000    -0.00000    -0.00000

 INTERNAL STRAIN TENSOR FOR ION    4 for displacements in x,y,z  (eV/Angst):
          X           Y           Z          XY          YZ          ZX
  --------------------------------------------------------------------------------
  x    -3.72612     3.72612     0.00000    -0.00000     0.00000     8.19430
  y    -0.00000     0.00000     0.00000     3.72612     8.22283     0.00000
  z     6.79137     6.79137    10.56219     0.00000     0.00000     0.00000

 INTERNAL STRAIN TENSOR FOR ION    5 for displacements in x,y,z  (eV/Angst):
          X           Y           Z          XY          YZ          ZX
  --------------------------------------------------------------------------------
  x     0.00000     0.00000     0.00000     0.00000     0.00000     0.00000
  y     0.00000     0.00000     0.00000     0.00000     0.00000     0.00000
  z     0.00000     0.00000     0.00000     0.00000     0.00000     0.00000


--------------------------------------------------------------------------------------------------------



 SECOND DERIVATIVES (NOT SYMMETRIZED)
 ------------------------------------
               1X          1Y          1Z          2X          2Y          2Z          3X          3Y          3Z          4X          4Y          4Z          5X          5Y          5Z 
  1X    -2.477030   -0.000000   -0.000000    0.655365    0.000000    0.000000    2.218439    0.000000    0.000000   -0.469934   -0.000000   -0.000000    0.073162    0.000000    0.000000
  1Y    -0.000000   -2.477030   -0.000000    0.000000    0.655365    0.000000    0.000000    2.218439    0.000000   -0.000000   -0.469934   -0.000000    0.000000    0.073162    0.000000
  1Z    -0.000000   -0.000000   -8.504037    0.000000    0.000000    1.291130    0.000000    0.000000    5.442862   -0.000000   -0.000000   -0.294523    0.000000    0.000000    2.064569
  2X     0.655365    0.000000    0.000000   -2.477030   -0.000000   -0.000000   -0.469934   -0.000000   -0.000000    2.218439    0.000000    0.000000    0.073162    0.000000    0.000000
  2Y     0.000000    0.655365    0.000000   -0.000000   -2.477030   -0.000000   -0.000000   -0.469934   -0.000000    0.000000    2.218439    0.000000    0.000000    0.073162    0.000000
  2Z     0.000000    0.000000    1.291130   -0.000000   -0.000000   -8.504037   -0.000000   -0.000000   -0.294523    0.000000    0.000000    5.442862    0.000000    0.000000    2.064569
  3X     2.221220    0.000000    0.000000   -0.469143   -0.000000   -0.000000   -3.462463   -0.000000   -0.000000    0.437112    0.000000    0.000000    1.273274    0.000000    0.000000
  3Y     0.000000    2.221220    0.000000   -0.000000   -0.469143   -0.000000   -0.000000   -3.462463   -0.000000    0.000000    0.437112    0.000000    0.000000    1.273274    0.000000
  3Z     0.000000    0.000000    5.445107   -0.000000   -0.000000   -0.292842   -0.000000   -0.000000   -5.999798    0.000000    0.000000    0.218773    0.000000    0.000000    0.628760
  4X    -0.469143   -0.000000   -0.000000    2.221220    0.000000    0.000000    0.437112    0.000000    0.000000   -3.462463   -0.000000   -0.000000    1.273274    0.000000    0.000000
  4Y    -0.000000   -0.469143   -0.000000    0.000000    2.221220    0.000000    0.000000    0.437112    0.000000   -0.000000   -3.462463   -0.000000    0.000000    1.273274    0.000000
  4Z    -0.000000   -0.000000   -0.292842    0.000000    0.000000    5.445107    0.000000    0.000000    0.218773   -0.000000   -0.000000   -5.999798    0.000000    0.000000    0.628760
  5X     0.072451    0.000000    0.000000    0.072451    0.000000    0.000000    1.275380    0.000000    0.000000    1.275380    0.000000    0.000000   -2.695661   -0.000000   -0.000000
  5Y     0.000000    0.072451    0.000000    0.000000    0.072451    0.000000    0.000000    1.275380    0.000000    0.000000    1.275380    0.000000   -0.000000   -2.695661   -0.000000
  5Z     0.000000    0.000000    2.059877    0.000000    0.000000    2.059877    0.000000    0.000000    0.633678    0.000000    0.000000    0.633678   -0.000000   -0.000000   -5.387110


 Eigenvectors and eigenvalues of the dynamical matrix
 ----------------------------------------------------


   1 f  =    5.190626 THz    32.613664 2PiTHz  173.140634 cm-1    21.466710 meV
             X         Y         Z           dx          dy          dz
      0.000000  0.000000 12.328331     0.000000    0.000000    0.407385  
      0.000000  0.000000 18.804185    -0.000000   -0.000000   -0.407385  
      0.000000  0.000000 24.269963    -0.000000   -0.000000   -0.577960  
      0.000000  0.000000  6.862553    -0.000000    0.000000    0.577960  
      0.000000  0.000000  0.000000    -0.000000   -0.000000    0.000000  

   2 f  =    4.910225 THz    30.851856 2PiTHz  163.787483 cm-1    20.307067 meV
             X         Y         Z           dx          dy          dz
      0.000000  0.000000 12.328331    -0.000000   -0.000000   -0.391666  
      0.000000  0.000000 18.804185    -0.000000   -0.000000   -0.391666  
      0.000000  0.000000 24.269963     0.000000    0.000000    0.583890  
      0.000000  0.000000  6.862553     0.000000    0.000000    0.583890  
      0.000000  0.000000  0.000000    -0.000000   -0.000000    0.106494  

   3 f  =    4.346627 THz    27.310665 2PiTHz  144.987875 cm-1    17.976212 meV
             X         Y         Z           dx          dy          dz
      0.000000  0.000000 12.328331    -0.000000   -0.000000    0.165763  
      0.000000  0.000000 18.804185    -0.000000   -0.000000    0.165763  
      0.000000  0.000000 24.269963     0.000000    0.000000    0.196158  
      0.000000  0.000000  6.862553     0.000000    0.000000    0.196158  
      0.000000  0.000000  0.000000    -0.000000   -0.000000   -0.931713  

   4 f  =    3.859626 THz    24.250743 2PiTHz  128.743249 cm-1    15.962134 meV
             X         Y         Z           dx          dy          dz
      0.000000  0.000000 12.328331    -0.131619   -0.001575    0.000000  
      0.000000  0.000000 18.804185    -0.131619   -0.001575   -0.000000  
      0.000000  0.000000 24.269963     0.530932    0.006354   -0.000000  
      0.000000  0.000000  6.862553     0.530932    0.006354   -0.000000  
      0.000000  0.000000  0.000000    -0.633587   -0.007582    0.000000  

   5 f  =    3.859626 THz    24.250743 2PiTHz  128.743249 cm-1    15.962134 meV
             X         Y         Z           dx          dy          dz
      0.000000  0.000000 12.328331     0.001575   -0.131619    0.000000  
      0.000000  0.000000 18.804185     0.001575   -0.131619    0.000000  
      0.000000  0.000000 24.269963    -0.006354    0.530932   -0.000000  
      0.000000  0.000000  6.862553    -0.006354    0.530932   -0.000000  
      0.000000  0.000000  0.000000     0.007582   -0.633587    0.000000  

   6 f  =    3.806395 THz    23.916284 2PiTHz  126.967660 cm-1    15.741989 meV
             X         Y         Z           dx          dy          dz
      0.000000  0.000000 12.328331     0.302151    0.003488   -0.000000  
      0.000000  0.000000 18.804185    -0.302151   -0.003488    0.000000  
      0.000000  0.000000 24.269963    -0.639248   -0.007380    0.000000  
      0.000000  0.000000  6.862553     0.639248    0.007380   -0.000000  
      0.000000  0.000000  0.000000     0.000000   -0.000000    0.000000  

   7 f  =    3.806395 THz    23.916284 2PiTHz  126.967660 cm-1    15.741989 meV
             X         Y         Z           dx          dy          dz
      0.000000  0.000000 12.328331     0.003488   -0.302151    0.000000  
      0.000000  0.000000 18.804185    -0.003488    0.302151   -0.000000  
      0.000000  0.000000 24.269963    -0.007380    0.639248   -0.000000  
      0.000000  0.000000  6.862553     0.007380   -0.639248    0.000000  
      0.000000  0.000000  0.000000    -0.000000    0.000000   -0.000000  

   8 f  =    2.222975 THz    13.967363 2PiTHz   74.150458 cm-1     9.193488 meV
             X         Y         Z           dx          dy          dz
      0.000000  0.000000 12.328331     0.404111    0.004824    0.000000  
      0.000000  0.000000 18.804185     0.404111    0.004824   -0.000000  
      0.000000  0.000000 24.269963    -0.312382   -0.003729    0.000000  
      0.000000  0.000000  6.862553    -0.312382   -0.003729   -0.000000  
      0.000000  0.000000  0.000000    -0.691434   -0.008253    0.000000  

   9 f  =    2.222975 THz    13.967363 2PiTHz   74.150458 cm-1     9.193488 meV
             X         Y         Z           dx          dy          dz
      0.000000  0.000000 12.328331    -0.004824    0.404111   -0.000000  
      0.000000  0.000000 18.804185    -0.004824    0.404111   -0.000000  
      0.000000  0.000000 24.269963     0.003729   -0.312382    0.000000  
      0.000000  0.000000  6.862553     0.003729   -0.312382    0.000000  
      0.000000  0.000000  0.000000     0.008253   -0.691434    0.000000  

  10 f  =    1.939260 THz    12.184728 2PiTHz   64.686736 cm-1     8.020136 meV
             X         Y         Z           dx          dy          dz
      0.000000  0.000000 12.328331    -0.000000    0.000000    0.577960  
      0.000000  0.000000 18.804185    -0.000000   -0.000000   -0.577960  
      0.000000  0.000000 24.269963     0.000000    0.000000    0.407385  
      0.000000  0.000000  6.862553     0.000000   -0.000000   -0.407385  
      0.000000  0.000000  0.000000     0.000000    0.000000   -0.000000  

  11 f  =    1.115699 THz     7.010144 2PiTHz   37.215715 cm-1     4.614162 meV
             X         Y         Z           dx          dy          dz
      0.000000  0.000000 12.328331     0.639243    0.007796   -0.000000  
      0.000000  0.000000 18.804185    -0.639243   -0.007796    0.000000  
      0.000000  0.000000 24.269963     0.302149    0.003685   -0.000000  
      0.000000  0.000000  6.862553    -0.302149   -0.003685    0.000000  
      0.000000  0.000000  0.000000    -0.000000    0.000000    0.000000  

  12 f  =    1.115699 THz     7.010144 2PiTHz   37.215715 cm-1     4.614162 meV
             X         Y         Z           dx          dy          dz
      0.000000  0.000000 12.328331    -0.007796    0.639243   -0.000000  
      0.000000  0.000000 18.804185     0.007796   -0.639243    0.000000  
      0.000000  0.000000 24.269963    -0.003685    0.302149   -0.000000  
      0.000000  0.000000  6.862553     0.003685   -0.302149    0.000000  
      0.000000  0.000000  0.000000     0.000000    0.000000    0.000000  

  13 f/i=    0.000181 THz     0.001138 2PiTHz    0.006040 cm-1     0.000749 meV
             X         Y         Z           dx          dy          dz
      0.000000  0.000000 12.328331    -0.000000   -0.000000    0.564907  
      0.000000  0.000000 18.804185    -0.000000   -0.000000    0.564907  
      0.000000  0.000000 24.269963    -0.000000   -0.000000    0.347268  
      0.000000  0.000000  6.862553    -0.000000   -0.000000    0.347268  
      0.000000  0.000000  0.000000    -0.000000   -0.000000    0.347231  

  14 f/i=    0.001032 THz     0.006487 2PiTHz    0.034439 cm-1     0.004270 meV
             X         Y         Z           dx          dy          dz
      0.000000  0.000000 12.328331    -0.528711    0.199523    0.000000  
      0.000000  0.000000 18.804185    -0.528711    0.199523    0.000000  
      0.000000  0.000000 24.269963    -0.324741    0.122550    0.000000  
      0.000000  0.000000  6.862553    -0.324741    0.122550    0.000000  
      0.000000  0.000000  0.000000    -0.324586    0.122491    0.000000  

  15 f/i=    0.001032 THz     0.006487 2PiTHz    0.034439 cm-1     0.004270 meV
             X         Y         Z           dx          dy          dz
      0.000000  0.000000 12.328331    -0.199523   -0.528711   -0.000000  
      0.000000  0.000000 18.804185    -0.199523   -0.528711   -0.000000  
      0.000000  0.000000 24.269963    -0.122550   -0.324741   -0.000000  
      0.000000  0.000000  6.862553    -0.122550   -0.324741   -0.000000  
      0.000000  0.000000  0.000000    -0.122491   -0.324586   -0.000000  



--------------------------------------------------------------------------------------------------------




 MACROSCOPIC STATIC DIELECTRIC TENSOR IONIC CONTRIBUTION
 ------------------------------------------------------
          58.524495    -0.000000     0.000014
          -0.000000    58.518359    -0.000002
           0.000014    -0.000002     1.437540
 ------------------------------------------------------


 ELASTIC MODULI CONTR FROM IONIC RELAXATION (kBar)
 Direction    XX          YY          ZZ          XY          YZ          ZX
 --------------------------------------------------------------------------------
 XX        -295.4540    -98.3290   -352.0024     -0.0000      0.0000    208.4925
 YY         -98.3290   -295.4540   -352.0024     -0.0000     -0.0000   -208.4925
 ZZ        -352.0024   -352.0024   -663.9921     -0.0000     -0.0000     -0.0000
 XY          -0.0000     -0.0000     -0.0000    -98.5625   -209.4255      0.0000
 YZ           0.0000     -0.0000     -0.0000   -209.4255   -446.8131     -0.0000
 ZX         208.4925   -208.4925     -0.0000      0.0000     -0.0000   -442.9388
 --------------------------------------------------------------------------------


 PIEZOELECTRIC TENSOR IONIC CONTR  for field in x, y, z        (C/m^2)
          XX          YY          ZZ          XY          YZ          ZX
  --------------------------------------------------------------------------------
  x     0.00000    -0.00003    -0.00003     0.00000     0.00000    -0.00004
  y    -0.00006    -0.00001     0.00008     0.00000     0.00000     0.00001
  z    -0.00033    -0.00033    -0.00098    -0.00000    -0.00000    -0.00000


--------------------------------------------------------------------------------------------------------


 writing wavefunctions
     LOOP+:  cpu time23383.9236: real time23459.2530
    4ORBIT:  cpu time    0.0000: real time    0.0000
 BZINTS: Fermi energy:  3.514967; 48.000000 electrons
         Band energy:-436.800479;  BLOECHL correction:  0.000000

 total amount of memory used by VASP MPI-rank0   220930. kBytes
=======================================================================

   base      :      30000. kBytes
   nonl-proj :      99418. kBytes
   fftplans  :      19469. kBytes
   grid      :      49510. kBytes
   one-center:         77. kBytes
   wavefun   :      22456. kBytes

  
  
 General timing and accounting informations for this job:
 ========================================================
  
                  Total CPU time used (sec):    23395.422
                            User time (sec):    23359.746
                          System time (sec):       35.675
                         Elapsed time (sec):    23470.793
  
                   Maximum memory used (kb):      670248.
                   Average memory used (kb):           0.
  
                          Minor page faults:      5941129
                          Major page faults:           37
                 Voluntary context switches:          164
