 +-------------------------------------------------+
 |                                                 |
 |      CCC   AA    SSS  TTTTT  EEEEE  PPPP        |
 |     C     A  A  S       T    E      P   P       |
 |     C     AAAA   SS     T    EEE    PPPP        |
 |     C     A  A     S    T    E      P           |
 |      CCC  A  A  SSS     T    EEEEE  P           |
 |                                                 |
 +-------------------------------------------------+
 |                                                 |
 | Welcome to Academic Release CASTEP version 24.1 |
 | Ab Initio Total Energy Program                  |
 |                                                 |
 | Authors:                                        |
 | M. Segall, M. Probert, C. Pickard, P. Hasnip,   |
 | S. Clark, K. Refson, J. R. Yates,               |
 | A. Bartok-Partay, M. Payne                      |
 |                                                 |
 | Contributors:                                   |
 | P. Lindan, P. Haynes, J. White, V. Milman,      |
 | N. Govind, M. Gibson, P. Tulip, V. Cocula,      |
 | B. Montanari, D. Quigley, M. Glover,            |
 | L. Bernasconi, A. Perlov, M. Plummer,           |
 | E. McNellis, J. Meyer, J. Gale, D. Jochym       |
 | J. Aarons, B. Walker, R. Gillen, D. Jones       |
 | T. Green, I. J. Bush, C. J. Armstrong,          |
 | E. J. Higgins, E. L. Brown, M. S. McFly,        |
 | J. Wilkins, B-C. Shih, P. J. P. Byrne,          |
 | R. J. Maurer, J. C. Womack, J. Dziedzic,        |
 | L. LeBlanc, T. K. Stenczel, J. Kermode,         |
 | S. Sturniolo, B. Shi, B. Durham, M. Evans,      |
 | M. J. Smith, A. Tamerus, Z. Hawkhead,           |
 | V. Ravindran, T. Hollins, S. A. Joyce,          |
 | R. T. Strong, A. M. Reilly, S. J. Donaldson     |
 |                                                 |
 | Copyright (c) 2000 - 2023                       |
 |                                                 |
 |     Distributed under license from Cambridge    |
 |     Enterprise for academic use only.           |
 |                                                 |
 | Please cite                                     |
 |                                                 |
 |     "First principles methods using CASTEP"     |
 |                                                 |
 |         Zeitschrift fuer Kristallographie       |
 |           220(5-6) pp. 567-570 (2005)           |
 |                                                 |
 | S. J. Clark, M. D. Segall, C. J. Pickard,       |
 | P. J. Hasnip, M. J. Probert, K. Refson,         |
 | M. C. Payne                                     |
 |                                                 |
 |       in all publications arising from          |
 |              your use of CASTEP                 |
 |                                                 |
 +-------------------------------------------------+
 |                                                 |
 |              http://www.castep.org              |
 |                                                 |
 +-------------------------------------------------+



 Compiled for linux_x86_64_gfortran10 on Tue, 16 Jul 2024 17:23:51 +0100
 from code version 6355fd106  Castep241_branch  Thu Mar 7 17:56:19 2024 +0000
 Compiler: GNU Fortran 14.1.1; Optimisation: fast
 Comms   : Open MPI v5.0.3
 MATHLIBS: default (LAPACK version 3.12.0)
 FFT Lib : default
 Fundamental constants values: CODATA 2018

 Run started: Tue, 16 Jul 2024 18:22:04 +0100

 ******************************* User Parameters *******************************
iprint                  : 2                # verbosity control (I)
task                    : phonon+efield    # type of calculation (S)
calculatestress         : T                # stress on/off (L)
calculatedensdiff       : F                # calculate density difference based on atoms (L)
pagewvfns               : 0                # page wavefunctions to disk (I)
optstrategy             : speed            # optimization strategy (S)
xcfunctional            : PBE              # exchange-correlation functional (S)
cutoffenergy            : 550.0000000 ev   # maximum energy of planewaves in basis set (P)
gridscale               : 2.0000000        # standard grid size (R)
finegridscale           : 3.0000000        # fine grid size (R)
finitebasiscorr         : none             # finite basis set correction (S)
charge                  : 0.0000000        # net charge (R)
spinpolarized           : F                # spin polarized (L)
nextrabands             : 0                # number of extra bands (I)
electronicminimizer     : CG               # electronic minimization method (S)
maxcgsteps              : 8                # max. number of conjugate gradient steps (I)
elecenergytol           : 0.0000000 ev     # total energy per atom convergence tolerance (P)
maxscfcycles            : 200              # maximum SCF cycles (I)
fixoccupancy            : T                # treat system as an insulator (L)
numdumpcycles           : 0                # frequency of wavefunction dumps (I)
mixingscheme            : Pulay            # density mixing scheme (S)
mixhistorylength        : 10               # number of densities in mixing scheme (I)
mixchargeamp            : 0.5000000        # charge density mixing amplitude (R)
mixchargegmax           : 1.5000000 1/ang  # maximum G-vector in charge mixing scheme (P)
popncalculate           : T                # population analysis on/off (L)
pdoscalculateweights    : F                # partial DOS analysis on/off (L)
geommethod              : BFGS             # geometry optimization method (S)
geommaxiter             : 100              # maximum number of geometry optimization iterations (I)
geomenergytol           : 0.0000010 ev     # geometry optimization energy convergence tolerance (P)
geomforcetol            : 0.0010000 ev/ang # geometry optimization force convergence tolerance (P)
geomdisptol             : 0.0002000 ang    # geometry optimization displacement convergence tolerance (P)
geomstresstol           : 0.0010000 gpa    # geometry optimization stress convergence tolerance (P)
phononmaxcycles         : 400              # maximum cycles in LR (I)
phononcalclotosplitting : T                # gamma-point phonon LO/TO correction (L)
calculateborncharges    : T                # calculate Born effective charges (L)
bornchargesumrule       : T                # enforce Born charge sum rule (L)
efieldmaxcycles         : 400              # maximum cycles in EFIELD (I)

 *******************************************************************************
  
 +-------------------------------------------------+
 |                                                 |
 |  D D D D    F F F F F  P P P P     T T T T T    |
 |  D       D  F          P       P       T        |
 |  D       D  F F F F    P P P P         T        |
 |  D       D  F          P               T        |
 |  D D D D    F          P               T        |
 |                                                 |
 +-------------------------------------------------+
 |                                                 |
 | Welcome to Castep Linear Response (DFPT)        |
 |                                                 |
 | Copyright (c) 2006 - 2023                       |
 |                                                 |
 | Please cite the following publications in all   |
 | work arising from your use of CASTEP LR.        |
 |                                                 |
 | K. Refson, S. J. Clark and P. R. Tulip          |
 | Variational density functional perturbation     |
 | theory for dielectrics and lattice dynamics     |
 | Phys. Rev. B 73(15), 155114 (2006)              |
 +-------------------------------------------------+


 Pseudo atomic calculation performed for O 2s2 2p4

 Converged in 46 iterations to a total energy of -421.5931 eV

 Pseudo atomic calculation performed for Na 2s2 2p6 3s1

 Converged in 32 iterations to a total energy of -1154.2432 eV

 Pseudo atomic calculation performed for S 3s2 3p4

 Converged in 40 iterations to a total energy of -276.6591 eV
Initialising basis set.

Standard grid dimensions:  40  45  48
Fine grid dimensions:      60  64  72

 BASIS_DISTRIBUTE REPORT
 stnd grid dims =           40          45          48
 fine grid dims =           60          64          72
 max stnd cols  =          270         240         225
 max fine cols  =          768         720         480

 
 G-vector Distribution Summary
 -----------------------------
 
 Distribution method: process_grid
 
 Load-balance method:                   Karmarkar-Karp
 
 G-vector group:   1
 -------------------
 X-columns:  PG: [4,2]
 Proc   # Stnd  # Fine  # Stnd Wgt  # Fine Wgt  Sum Stnd Wgt  Sum Fine Wgt
 1      270     768     49          49          58393         58393       
 2      270     768     52          52          58394         58394       
 3      270     768     50          50          58392         58392       
 4      270     768     50          50          58392         58392       
 5      270     384     58          58          58398         58398       
 6      270     384     52          52          58396         58396       
 7      270     384     56          56          58396         58396       
 8      270     384     54          54          58394         58394       
 -------------------------------------------------------------------------
 Total  2160    4608    421         421         467155        467155      
 Max    270     768     58          58          58398         58398       
 Delta  0       384     9           9           6             6           
 
 Y-columns:  PG: [4,2]
 Proc   # Stnd  # Fine  # Stnd Wgt  # Fine Wgt  Sum Stnd Wgt  Sum Fine Wgt
 1      240     720     110         165         110           165         
 2      240     720     110         165         110           165         
 3      240     720     110         165         110           165         
 4      240     720     110         165         110           165         
 5      240     360     140         210         140           210         
 6      240     360     140         210         140           210         
 7      240     360     140         210         140           210         
 8      240     360     140         210         140           210         
 -------------------------------------------------------------------------
 Total  1920    4320    1000        1500        1000          1500        
 Max    240     720     140         210         140           210         
 Delta  0       360     30          45          30            45          
 
 Z-columns:  PG: [4,2]
 Proc   # Stnd  # Fine  # Stnd Wgt  # Fine Wgt  Sum Stnd Wgt  Sum Fine Wgt
 1      225     480     225         480         225           480         
 2      225     480     225         480         225           480         
 3      225     480     225         480         225           480         
 4      225     480     225         480         225           480         
 5      225     480     225         480         225           480         
 6      225     480     225         480         225           480         
 7      225     480     225         480         225           480         
 8      225     480     225         480         225           480         
 -------------------------------------------------------------------------
 Total  1800    3840    1800        3840        1800          3840        
 Max    225     480     225         480         225           480         
 Delta  0       0       0           0           0             0           

Plane wave load balancing: max 565 min 543 average 556
True cut-off energy of basis :  20.212
 Calculation parallelised over 8 processes.
 Data is distributed by G-vector(8-way)

 ************************************ Title ************************************
 

 ***************************** General Parameters ******************************
  
 output verbosity                               : verbose (2)
 write checkpoint data to                       : phonon.check
 type of calculation                            : Phonon followed by E-field
 stress calculation                             : on
 density difference calculation                 : off
 electron localisation func (ELF) calculation   : off
 Hirshfeld analysis                             : off
 polarisation (Berry phase) analysis            : off
 molecular orbital projected DOS                : off
 deltaSCF calculation                           : off
 unlimited duration calculation
 timing information                             : on
 memory usage estimate                          : on
 write extra output files                       : on
 write final potential to formatted file        : off
 write final density to formatted file          : off
 write BibTeX reference list                    : on
 write OTFG pseudopotential files               : on
 write electrostatic potential file             : on
 write bands file                               : on
 checkpoint writing                             : both castep_bin and check files
  
 output         length unit                     : A
 output           mass unit                     : amu
 output           time unit                     : ps
 output         charge unit                     : e
 output           spin unit                     : hbar/2
 output         energy unit                     : eV
 output          force unit                     : eV/A
 output       velocity unit                     : A/ps
 output       pressure unit                     : GPa
 output     inv_length unit                     : 1/A
 output      frequency unit                     : cm-1
 output force constant unit                     : eV/A**2
 output         volume unit                     : A**3
 output   IR intensity unit                     : (D/A)**2/amu
 output         dipole unit                     : D
 output         efield unit                     : eV/A/e
 output        entropy unit                     : J/mol/K
 output    efield chi2 unit                     : pm/V
  
 wavefunctions paging                           : none
 random number generator seed                   :  182204195
 data distribution                              : optimal for this architecture
 optimization strategy                          : maximize speed(+++)

 *********************** Exchange-Correlation Parameters ***********************
  
 using functional                               : Perdew Burke Ernzerhof
 relativistic treatment                         : Koelling-Harmon
 DFT+D: Semi-empirical dispersion correction    : off

 ************************* Pseudopotential Parameters **************************
  
 pseudopotential representation                 : reciprocal space
 <beta|phi> representation                      : reciprocal space
 spin-orbit coupling                            : off

 **************************** Basis Set Parameters *****************************
  
 plane wave basis set cut-off                   :   550.0000   eV
 size of standard grid                          :     2.0000
 size of   fine   grid                          :     3.0000
 size of   fine   gmax                          :    36.0447   1/A
 largest prime factor in FFT                    :          5
 finite basis set correction                    : none

 **************************** Electronic Parameters ****************************
  
 number of  electrons                           :  78.00    
 net charge of system                           :  0.000    
 treating system as non-spin-polarized
 number of bands                                :         39

 ********************* Electronic Minimization Parameters **********************
  
 Method: Treating system as non-metallic,
         and number of  SD  steps               :          1
         and number of  CG  steps               :          8
  
 total energy / atom convergence tol.           : 0.1000E-11   eV
 max force / atom convergence tol.              : ignored
 convergence tolerance window                   :          3   cycles
 max. number of SCF cycles                      :        200
 periodic dipole correction                     : NONE

 *********************** Population Analysis Parameters ************************
  
 Population analysis with cutoff                :  3.000       A
 Population analysis output                     : summary and pdos components

 ****************************** Phonon Parameters ******************************
  
 phonon calculation method                      : linear response
 phonon convergence tolerance                   : 0.1000E-04   eV/A**2
 max. number of phonon cycles                   :        400
 max. number of phonon CG steps                 :          0
 convergence tolerance window                   :          2   cycles
 DFPT solver method                             : AllBands (Gonze variational method)
 preconditioning scheme                         : TPA     
 fine phonon calculation method                 : none
 LO/TO splitting term                           : included
 acoustic phonon sum rule                       : correct D(q) in recip-space
 Born effective charges                         : calculated
 Born charge sum rule                           : explicitly enforced
 Raman intensities                              : not calculated
 phonon k-points                                : use reduced set
 phonon DOS                                     : not calculated
 no timed backups

 ***************************** E-Field Parameters ******************************
  
 E-field convergence tolerance                  : 0.1000E-04   A**3
 DFPT solver method                             : AllBands (Gonze variational method)
 ionic contribution to permittivity             : included
 treating system as a crystal, 
 => ignoring 3 lowest modes when calculating ionic  contribution to permittivity
 calculation with frequency spacing             : 0.4556E-05   cm-1
 Q-factor for lineshape broadening              :    50.0000
 calculate non-linear optical properties        : OFF
 max. number of E-field cycles                  :        400
 max. number of E-field CG steps                :          0
 convergence tolerance window                   :          2   cycles
 band convergence tolerance                     : 0.1000E-08   eV

 *******************************************************************************
  

                           -------------------------------
                                      Unit Cell
                           -------------------------------
        Real Lattice(A)                      Reciprocal Lattice(1/A)
     4.7800000     0.0000000     0.0000000        1.314473911   0.171140291   0.364413442
    -0.7197723     5.5283409     0.0000000        0.000000000   1.136540859   0.286034935
    -1.4050606    -1.4464823     5.7475016        0.000000000   0.000000000   1.093202877

                       Lattice parameters(A)       Cell Angles
                    a =      4.780000          alpha =  101.871000
                    b =      5.575000          beta  =  103.337000
                    c =      6.091000          gamma =   97.418000

                       Current cell volume =           151.880429       A**3
                                   density =             1.567725   AMU/A**3
                                           =             2.603269     g/cm^3

                           -------------------------------
                                     Cell Contents
                           -------------------------------
                         Total number of ions in cell =   12
                      Total number of species in cell =    3
                        Max number of any one species =    8

            xxxxxxxxxxxxxxxxxxxxxxxxxxxxxxxxxxxxxxxxxxxxxxxxxxxxxxxxxxxx
            x  Element    Atom        Fractional coordinates of atoms  x
            x            Number           u          v          w      x
            x----------------------------------------------------------x
            x  O            1         0.553874   0.019031   0.440862   x 
            x  O            2         0.446126   0.980969   0.559138   x 
            x  O            3         0.758890   0.907386   0.139814   x 
            x  O            4         0.241110   0.092614   0.860186   x 
            x  O            5         0.321294   0.656057   0.140675   x 
            x  O            6         0.678706   0.343943   0.859325   x 
            x  O            7         0.756277   0.649736   0.403633   x 
            x  O            8         0.243723   0.350264   0.596367   x 
            x  Na           1         0.017700   0.317755   0.204064   x 
            x  Na           2         0.982300   0.682245   0.795936   x 
            x  S            1         0.603230   0.785406   0.263766   x 
            x  S            2         0.396770   0.214594   0.736234   x 
            xxxxxxxxxxxxxxxxxxxxxxxxxxxxxxxxxxxxxxxxxxxxxxxxxxxxxxxxxxxx


                         No user defined ionic velocities

                           -------------------------------
                                   Details of Species
                           -------------------------------

                               Mass of species in AMU
                                    O   15.9994000
                                    Na   22.9897700
                                    S   32.0660000

                          Electric Quadrupole Moment (Barn)
                                    O   -0.0255800 Isotope 17
                                    Na    0.1040000 Isotope 23
                                    S   -0.0678000 Isotope 33

                          Files used for pseudopotentials:
                                    O /home/john/Data/PseudoPotentials/O_00.recpot
                                    Na /home/john/Data/PseudoPotentials/Na_00.recpot
                                    S /home/john/Data/PseudoPotentials/S_00.recpot

                           -------------------------------
                              k-Points For BZ Sampling
                           -------------------------------
                       MP grid size for SCF calculation is  7  6  5
                            with an offset of   0.000  0.000  0.000
                       Number of kpoints used =           105

             +++++++++++++++++++++++++++++++++++++++++++++++++++++++
             +  Number       Fractional coordinates        Weight  +
             +-----------------------------------------------------+
             +     1  -0.428571  -0.416667  -0.400000   0.0095238  +
             +     2  -0.428571  -0.416667  -0.200000   0.0095238  +
             +     3  -0.428571  -0.416667   0.200000   0.0095238  +
             +     4  -0.428571  -0.250000  -0.400000   0.0095238  +
             +     5  -0.428571  -0.250000  -0.200000   0.0095238  +
             +     6  -0.428571  -0.250000   0.000000   0.0095238  +
             +     7  -0.428571   0.083333  -0.400000   0.0095238  +
             +     8  -0.428571   0.083333  -0.200000   0.0095238  +
             +     9  -0.428571   0.083333   0.000000   0.0095238  +
             +    10  -0.428571   0.083333   0.200000   0.0095238  +
             +    11  -0.428571   0.250000  -0.400000   0.0095238  +
             +    12  -0.428571   0.250000   0.200000   0.0095238  +
             +    13  -0.428571   0.416667  -0.400000   0.0095238  +
             +    14  -0.428571   0.416667  -0.200000   0.0095238  +
             +    15  -0.428571   0.416667   0.200000   0.0095238  +
             +    16  -0.285714  -0.416667  -0.400000   0.0095238  +
             +    17  -0.285714  -0.416667  -0.200000   0.0095238  +
             +    18  -0.285714  -0.416667   0.000000   0.0095238  +
             +    19  -0.285714  -0.416667   0.200000   0.0095238  +
             +    20  -0.285714  -0.416667   0.400000   0.0095238  +
             +    21  -0.285714  -0.250000  -0.400000   0.0095238  +
             +    22  -0.285714  -0.250000   0.000000   0.0095238  +
             +    23  -0.285714  -0.250000   0.200000   0.0095238  +
             +    24  -0.285714  -0.250000   0.400000   0.0095238  +
             +    25  -0.285714  -0.083333  -0.200000   0.0095238  +
             +    26  -0.285714   0.083333  -0.400000   0.0095238  +
             +    27  -0.285714   0.250000  -0.400000   0.0095238  +
             +    28  -0.285714   0.416667  -0.400000   0.0095238  +
             +    29  -0.285714   0.416667  -0.200000   0.0095238  +
             +    30  -0.285714   0.416667   0.400000   0.0095238  +
             +    31  -0.142857  -0.416667   0.200000   0.0095238  +
             +    32  -0.142857  -0.416667   0.400000   0.0095238  +
             +    33  -0.142857  -0.250000  -0.400000   0.0095238  +
             +    34  -0.142857  -0.250000  -0.200000   0.0095238  +
             +    35  -0.142857  -0.250000   0.000000   0.0095238  +
             +    36  -0.142857  -0.250000   0.200000   0.0095238  +
             +    37  -0.142857  -0.250000   0.400000   0.0095238  +
             +    38  -0.142857   0.250000   0.200000   0.0095238  +
             +    39  -0.142857   0.250000   0.400000   0.0095238  +
             +    40  -0.142857   0.416667  -0.400000   0.0095238  +
             +    41  -0.142857   0.416667  -0.200000   0.0095238  +
             +    42  -0.142857   0.416667   0.000000   0.0095238  +
             +    43  -0.142857   0.416667   0.200000   0.0095238  +
             +    44   0.000000  -0.416667  -0.400000   0.0095238  +
             +    45   0.000000  -0.416667  -0.200000   0.0095238  +
             +    46   0.000000  -0.416667   0.000000   0.0095238  +
             +    47   0.000000  -0.416667   0.200000   0.0095238  +
             +    48   0.000000  -0.416667   0.400000   0.0095238  +
             +    49   0.000000  -0.250000  -0.400000   0.0095238  +
             +    50   0.000000  -0.250000  -0.200000   0.0095238  +
             +    51   0.000000  -0.250000   0.000000   0.0095238  +
             +    52   0.000000  -0.250000   0.200000   0.0095238  +
             +    53   0.000000  -0.250000   0.400000   0.0095238  +
             +    54   0.000000  -0.083333  -0.400000   0.0095238  +
             +    55   0.000000  -0.083333  -0.200000   0.0095238  +
             +    56   0.000000  -0.083333   0.000000   0.0095238  +
             +    57   0.000000  -0.083333   0.200000   0.0095238  +
             +    58   0.000000  -0.083333   0.400000   0.0095238  +
             +    59   0.142857  -0.416667  -0.400000   0.0095238  +
             +    60   0.142857  -0.250000   0.000000   0.0095238  +
             +    61   0.142857  -0.250000   0.200000   0.0095238  +
             +    62   0.142857  -0.250000   0.400000   0.0095238  +
             +    63   0.142857  -0.083333  -0.400000   0.0095238  +
             +    64   0.142857  -0.083333  -0.200000   0.0095238  +
             +    65   0.142857  -0.083333   0.000000   0.0095238  +
             +    66   0.142857  -0.083333   0.200000   0.0095238  +
             +    67   0.142857  -0.083333   0.400000   0.0095238  +
             +    68   0.142857   0.083333  -0.400000   0.0095238  +
             +    69   0.142857   0.083333  -0.200000   0.0095238  +
             +    70   0.142857   0.083333   0.000000   0.0095238  +
             +    71   0.142857   0.083333   0.200000   0.0095238  +
             +    72   0.142857   0.083333   0.400000   0.0095238  +
             +    73   0.142857   0.416667   0.000000   0.0095238  +
             +    74   0.142857   0.416667   0.200000   0.0095238  +
             +    75   0.142857   0.416667   0.400000   0.0095238  +
             +    76   0.285714  -0.416667  -0.200000   0.0095238  +
             +    77   0.285714  -0.416667   0.000000   0.0095238  +
             +    78   0.285714  -0.250000  -0.400000   0.0095238  +
             +    79   0.285714  -0.250000  -0.200000   0.0095238  +
             +    80   0.285714  -0.250000   0.000000   0.0095238  +
             +    81   0.285714  -0.250000   0.200000   0.0095238  +
             +    82   0.285714  -0.083333  -0.400000   0.0095238  +
             +    83   0.285714  -0.083333  -0.200000   0.0095238  +
             +    84   0.285714  -0.083333   0.000000   0.0095238  +
             +    85   0.285714  -0.083333   0.200000   0.0095238  +
             +    86   0.285714   0.083333  -0.400000   0.0095238  +
             +    87   0.285714   0.083333  -0.200000   0.0095238  +
             +    88   0.285714   0.083333   0.000000   0.0095238  +
             +    89   0.285714   0.083333   0.400000   0.0095238  +
             +    90   0.285714   0.250000   0.200000   0.0095238  +
             +    91   0.428571  -0.416667  -0.400000   0.0095238  +
             +    92   0.428571  -0.416667   0.000000   0.0095238  +
             +    93   0.428571  -0.250000  -0.400000   0.0095238  +
             +    94   0.428571  -0.250000   0.000000   0.0095238  +
             +    95   0.428571  -0.250000   0.200000   0.0095238  +
             +    96   0.428571  -0.083333  -0.400000   0.0095238  +
             +    97   0.428571   0.083333  -0.400000   0.0095238  +
             +    98   0.428571   0.083333  -0.200000   0.0095238  +
             +    99   0.428571   0.083333   0.000000   0.0095238  +
             +   100   0.428571   0.083333   0.200000   0.0095238  +
             +   101   0.428571   0.083333   0.400000   0.0095238  +
             +   102   0.428571   0.250000  -0.400000   0.0095238  +
             +   103   0.428571   0.250000  -0.200000   0.0095238  +
             +   104   0.428571   0.416667  -0.400000   0.0095238  +
             +   105   0.428571   0.416667   0.000000   0.0095238  +
             +++++++++++++++++++++++++++++++++++++++++++++++++++++++

                           -------------------------------
                               Symmetry and Constraints
                           -------------------------------

                      Maximum deviation from symmetry = 0.229448E-14     ANG

                      Number of symmetry operations   =           2
                      Number of ionic constraints     =           3
                      Point group of crystal =     2: Ci, -1, -1
                      Space group of crystal =     2: P-1, -P 1

                    1 rotation    
                 (   1.00000000000   0.00000000000   0.00000000000 )
                 (   0.00000000000   1.00000000000   0.00000000000 )
                 (  -0.00000000000  -0.00000000000   1.00000000000 )
                    1 displacement
                 (   0.00000000000   0.00000000000   0.00000000000 )
                      symmetry related atoms: 
             O:    1    2    3    4    5    6    7    8
             Na:    1    2
             S:    1    2

                    2 rotation    
                 (  -1.00000000000   0.00000000000   0.00000000000 )
                 (   0.00000000000  -1.00000000000   0.00000000000 )
                 (   0.00000000000   0.00000000000  -1.00000000000 )
                    2 displacement
                 (   0.00000000000   0.00000000000   0.00000000000 )
                      symmetry related atoms: 
             O:    2    1    4    3    6    5    8    7
             Na:    2    1
             S:    2    1


                         Centre of mass is constrained

            xxxxxxxxxxxxxxxxxxxxxxxxxxxxxxxxxxxxxxxxxxxxxxxxxxxxxxxxxxxxxx....
            x  Species       atom   co-ordinate  constraints.....         
            x-------------------------------------------------------------....
            x O                 1       x        29165.1221      0.0000      0.0000
            x O                 1       y            0.0000  29165.1221      0.0000
            x O                 1       z            0.0000      0.0000  29165.1221
            x O                 2       x        29165.1221      0.0000      0.0000
            x O                 2       y            0.0000  29165.1221      0.0000
            x O                 2       z            0.0000      0.0000  29165.1221
            x O                 3       x        29165.1221      0.0000      0.0000
            x O                 3       y            0.0000  29165.1221      0.0000
            x O                 3       z            0.0000      0.0000  29165.1221
            x O                 4       x        29165.1221      0.0000      0.0000
            x O                 4       y            0.0000  29165.1221      0.0000
            x O                 4       z            0.0000      0.0000  29165.1221
            x O                 5       x        29165.1221      0.0000      0.0000
            x O                 5       y            0.0000  29165.1221      0.0000
            x O                 5       z            0.0000      0.0000  29165.1221
            x O                 6       x        29165.1221      0.0000      0.0000
            x O                 6       y            0.0000  29165.1221      0.0000
            x O                 6       z            0.0000      0.0000  29165.1221
            x O                 7       x        29165.1221      0.0000      0.0000
            x O                 7       y            0.0000  29165.1221      0.0000
            x O                 7       z            0.0000      0.0000  29165.1221
            x O                 8       x        29165.1221      0.0000      0.0000
            x O                 8       y            0.0000  29165.1221      0.0000
            x O                 8       z            0.0000      0.0000  29165.1221
            x Na                1       x        41907.7870      0.0000      0.0000
            x Na                1       y            0.0000  41907.7870      0.0000
            x Na                1       z            0.0000      0.0000  41907.7870
            x Na                2       x        41907.7870      0.0000      0.0000
            x Na                2       y            0.0000  41907.7870      0.0000
            x Na                2       z            0.0000      0.0000  41907.7870
            x S                 1       x        58452.7422      0.0000      0.0000
            x S                 1       y            0.0000  58452.7422      0.0000
            x S                 1       z            0.0000      0.0000  58452.7422
            x S                 2       x        58452.7422      0.0000      0.0000
            x S                 2       y            0.0000  58452.7422      0.0000
            x S                 2       z            0.0000      0.0000  58452.7422
            xxxxxxxxxxxxxxxxxxxxxxxxxxxxxxxxxxxxxxxxxxxxxxxxxxxxxxxxxxxxxx....

                         Number of cell constraints= 6
                         Cell constraints are:  0 0 0 0 0 0

                         External pressure/stress (GPa)
                          0.00000   0.00000   0.00000
                                    0.00000   0.00000
                                              0.00000
 
+---------------- MEMORY AND SCRATCH DISK ESTIMATES PER PROCESS --------------+
|                                                     Memory          Disk    |
| Baseline code, static data and system overhead      429.0 MB         0.0 MB |
| BLAS internal memory storage                          0.0 MB         0.0 MB |
| Model and support data                               60.1 MB         0.0 MB |
| Electronic energy minimisation requirements         193.5 MB         0.0 MB |
| Force calculation requirements                        5.8 MB         0.0 MB |
| Stress calculation requirements                       7.2 MB         0.0 MB |
|                                               ----------------------------- |
| Approx. total storage required per process          682.6 MB         0.0 MB |
|                                                                             |
| Requirements will fluctuate during execution and may exceed these estimates |
+-----------------------------------------------------------------------------+
Calculating approximate eigenstates for fixed initial Hamiltonian
Cut-off for approx. calculation is  413.493 eV
Initialising basis set.

Standard grid dimensions:  32  40  45
Fine grid dimensions:      60  64  72

 BASIS_DISTRIBUTE REPORT
 stnd grid dims =           32          40          45
 fine grid dims =           60          64          72
 max stnd cols  =          231         184         160
 max fine cols  =          784         735         480

 
 G-vector Distribution Summary
 -----------------------------
 
 Distribution method: process_grid
 
 Load-balance method:                   Karmarkar-Karp
 
 G-vector group:   1
 -------------------
 X-columns:  PG: [4,2]
 Proc   # Stnd  # Fine  # Stnd Wgt  # Fine Wgt  Sum Stnd Wgt  Sum Fine Wgt
 1      231     368     39          39          38042         38042       
 2      231     368     42          42          38044         38044       
 3      229     368     40          40          38044         38044       
 4      229     368     40          40          38044         38044       
 5      221     784     38          38          38094         38094       
 6      221     784     42          42          38094         38094       
 7      219     784     38          38          38092         38092       
 8      219     784     40          40          38088         38088       
 -------------------------------------------------------------------------
 Total  1800    4608    319         319         304542        304542      
 Max    231     784     42          42          38094         38094       
 Delta  12      416     4           4           52            52          
 
 Y-columns:  PG: [4,2]
 Proc   # Stnd  # Fine  # Stnd Wgt  # Fine Wgt  Sum Stnd Wgt  Sum Fine Wgt
 1      184     345     88          165         88            165         
 2      184     345     88          165         88            165         
 3      184     345     88          165         88            165         
 4      184     345     88          165         88            165         
 5      176     735     80          150         80            150         
 6      176     735     80          150         80            150         
 7      176     735     80          150         80            150         
 8      176     735     80          150         80            150         
 -------------------------------------------------------------------------
 Total  1440    4320    672         1260        672           1260        
 Max    184     735     88          165         88            165         
 Delta  8       390     8           15          8             15          
 
 Z-columns:  PG: [4,2]
 Proc   # Stnd  # Fine  # Stnd Wgt  # Fine Wgt  Sum Stnd Wgt  Sum Fine Wgt
 1      160     480     160         480         160           480         
 2      160     480     160         480         160           480         
 3      160     480     160         480         160           480         
 4      160     480     160         480         160           480         
 5      160     480     160         480         160           480         
 6      160     480     160         480         160           480         
 7      160     480     160         480         160           480         
 8      160     480     160         480         160           480         
 -------------------------------------------------------------------------
 Total  1280    3840    1280        3840        1280          3840        
 Max    160     480     160         480         160           480         
 Delta  0       0       0           0           0             0           

Plane wave load balancing: max 371 min 353 average 362
True cut-off energy of basis :  15.196
Refining calculation on full k-point grid
Resetting cut-off to  550.000 eV
Initialising basis set.

Standard grid dimensions:  40  45  48
Fine grid dimensions:      60  64  72

 BASIS_DISTRIBUTE REPORT
 stnd grid dims =           40          45          48
 fine grid dims =           60          64          72
 max stnd cols  =          270         240         225
 max fine cols  =          768         720         480

 
 G-vector Distribution Summary
 -----------------------------
 
 Distribution method: process_grid
 
 Load-balance method:                   Karmarkar-Karp
 
 G-vector group:   1
 -------------------
 X-columns:  PG: [4,2]
 Proc   # Stnd  # Fine  # Stnd Wgt  # Fine Wgt  Sum Stnd Wgt  Sum Fine Wgt
 1      270     768     49          49          58393         58393       
 2      270     768     52          52          58394         58394       
 3      270     768     50          50          58392         58392       
 4      270     768     50          50          58392         58392       
 5      270     384     58          58          58398         58398       
 6      270     384     52          52          58396         58396       
 7      270     384     56          56          58396         58396       
 8      270     384     54          54          58394         58394       
 -------------------------------------------------------------------------
 Total  2160    4608    421         421         467155        467155      
 Max    270     768     58          58          58398         58398       
 Delta  0       384     9           9           6             6           
 
 Y-columns:  PG: [4,2]
 Proc   # Stnd  # Fine  # Stnd Wgt  # Fine Wgt  Sum Stnd Wgt  Sum Fine Wgt
 1      240     720     110         165         110           165         
 2      240     720     110         165         110           165         
 3      240     720     110         165         110           165         
 4      240     720     110         165         110           165         
 5      240     360     140         210         140           210         
 6      240     360     140         210         140           210         
 7      240     360     140         210         140           210         
 8      240     360     140         210         140           210         
 -------------------------------------------------------------------------
 Total  1920    4320    1000        1500        1000          1500        
 Max    240     720     140         210         140           210         
 Delta  0       360     30          45          30            45          
 
 Z-columns:  PG: [4,2]
 Proc   # Stnd  # Fine  # Stnd Wgt  # Fine Wgt  Sum Stnd Wgt  Sum Fine Wgt
 1      225     480     225         480         225           480         
 2      225     480     225         480         225           480         
 3      225     480     225         480         225           480         
 4      225     480     225         480         225           480         
 5      225     480     225         480         225           480         
 6      225     480     225         480         225           480         
 7      225     480     225         480         225           480         
 8      225     480     225         480         225           480         
 -------------------------------------------------------------------------
 Total  1800    3840    1800        3840        1800          3840        
 Max    225     480     225         480         225           480         
 Delta  0       0       0           0           0             0           

Plane wave load balancing: max 565 min 543 average 556
True cut-off energy of basis :  20.212
Improving states further at cut-off of  550.000 eV
Calculating total energy with cut-off of  550.000 eV.
 
Init
Total energy                     =     -6307.13768296673788427 eV
------------------------------------------------------------------------ <-- SCF
SCF loop      Energy                           Energy gain       Timer   <-- SCF
                                               per atom          (sec)   <-- SCF
------------------------------------------------------------------------ <-- SCF
Initial  -6.30713768E+003                                         44.96  <-- SCF
+------------------- WAVEFUNCTION LINE MINIMISATION --------------------+<- line
| Initial energy = -6.307138E+003 eV; initial dE/dstep = -1.970E+001 eV |<- line
|                                                                       |<- line
|            1st step    2nd step    3rd step    4th step    5th step   |<- line
+--------+--------------------------------------------------------------+<- line
| step   |  1.500E+00   6.745E-01* unnecessary unnecessary unnecessary  |<- line
| gain   | -3.309E+00   6.704E+00* unnecessary unnecessary unnecessary  |<- line
+--------+--------------------------------------------------------------+<- line
 * indicates the final, accepted state (should have the lowest energy)          
 
+------------------- WAVEFUNCTION LINE MINIMISATION --------------------+<- line
| Initial energy = -6.313842E+003 eV; initial dE/dstep = -1.277E+000 eV |<- line
|                                                                       |<- line
|            1st step    2nd step    3rd step    4th step    5th step   |<- line
+--------+--------------------------------------------------------------+<- line
| step   |  1.500E+00   1.154E+00* unnecessary unnecessary unnecessary  |<- line
| gain   |  6.710E-01   7.378E-01* unnecessary unnecessary unnecessary  |<- line
+--------+--------------------------------------------------------------+<- line
 * indicates the final, accepted state (should have the lowest energy)          
 
+------------------- WAVEFUNCTION LINE MINIMISATION --------------------+<- line
| Initial energy = -6.314580E+003 eV; initial dE/dstep = -4.455E-001 eV |<- line
|                                                                       |<- line
|            1st step    2nd step    3rd step    4th step    5th step   |<- line
+--------+--------------------------------------------------------------+<- line
| step   |  1.500E+00   1.354E+00* unnecessary unnecessary unnecessary  |<- line
| gain   |  2.980E-01   3.017E-01* unnecessary unnecessary unnecessary  |<- line
+--------+--------------------------------------------------------------+<- line
 * indicates the final, accepted state (should have the lowest energy)          
 
+------------------- WAVEFUNCTION LINE MINIMISATION --------------------+<- line
| Initial energy = -6.314881E+003 eV; initial dE/dstep = -2.815E-001 eV |<- line
|                                                                       |<- line
|            1st step    2nd step    3rd step    4th step    5th step   |<- line
+--------+--------------------------------------------------------------+<- line
| step   |  1.500E+00   1.461E+00* unnecessary unnecessary unnecessary  |<- line
| gain   |  2.055E-01   2.057E-01* unnecessary unnecessary unnecessary  |<- line
+--------+--------------------------------------------------------------+<- line
 * indicates the final, accepted state (should have the lowest energy)          
 
+------------------- WAVEFUNCTION LINE MINIMISATION --------------------+<- line
| Initial energy = -6.315087E+003 eV; initial dE/dstep = -2.298E-001 eV |<- line
|                                                                       |<- line
|            1st step    2nd step    3rd step    4th step    5th step   |<- line
+--------+--------------------------------------------------------------+<- line
| step   |  1.500E+00   1.060E+00* unnecessary unnecessary unnecessary  |<- line
| gain   |  1.009E-01   1.222E-01* unnecessary unnecessary unnecessary  |<- line
+--------+--------------------------------------------------------------+<- line
 * indicates the final, accepted state (should have the lowest energy)          
 
+------------------- WAVEFUNCTION LINE MINIMISATION --------------------+<- line
| Initial energy = -6.315209E+003 eV; initial dE/dstep = -1.488E-001 eV |<- line
|                                                                       |<- line
|            1st step    2nd step    3rd step    4th step    5th step   |<- line
+--------+--------------------------------------------------------------+<- line
| step   |  1.500E+00   9.897E-01* unnecessary unnecessary unnecessary  |<- line
| gain   |  5.405E-02   7.387E-02* unnecessary unnecessary unnecessary  |<- line
+--------+--------------------------------------------------------------+<- line
 * indicates the final, accepted state (should have the lowest energy)          
 
+------------------- WAVEFUNCTION LINE MINIMISATION --------------------+<- line
| Initial energy = -6.315283E+003 eV; initial dE/dstep = -7.741E-002 eV |<- line
|                                                                       |<- line
|            1st step    2nd step    3rd step    4th step    5th step   |<- line
+--------+--------------------------------------------------------------+<- line
| step   |  1.500E+00   1.047E+00* unnecessary unnecessary unnecessary  |<- line
| gain   |  3.295E-02   4.058E-02* unnecessary unnecessary unnecessary  |<- line
+--------+--------------------------------------------------------------+<- line
 * indicates the final, accepted state (should have the lowest energy)          
 
+------------------- WAVEFUNCTION LINE MINIMISATION --------------------+<- line
| Initial energy = -6.315324E+003 eV; initial dE/dstep = -4.163E-002 eV |<- line
|                                                                       |<- line
|            1st step    2nd step    3rd step    4th step    5th step   |<- line
+--------+--------------------------------------------------------------+<- line
| step   |  1.500E+00   1.065E+00* unnecessary unnecessary unnecessary  |<- line
| gain   |  1.849E-02   2.220E-02* unnecessary unnecessary unnecessary  |<- line
+--------+--------------------------------------------------------------+<- line
 * indicates the final, accepted state (should have the lowest energy)          
 
+------------------- WAVEFUNCTION LINE MINIMISATION --------------------+<- line
| Initial energy = -6.315346E+003 eV; initial dE/dstep = -2.404E-002 eV |<- line
|                                                                       |<- line
|            1st step    2nd step    3rd step    4th step    5th step   |<- line
+--------+--------------------------------------------------------------+<- line
| step   |  1.500E+00   1.082E+00* unnecessary unnecessary unnecessary  |<- line
| gain   |  1.106E-02   1.302E-02* unnecessary unnecessary unnecessary  |<- line
+--------+--------------------------------------------------------------+<- line
 * indicates the final, accepted state (should have the lowest energy)          
 
      1  -6.31535887E+003                    6.85098835E-001      97.01  <-- SCF
+------------------- WAVEFUNCTION LINE MINIMISATION --------------------+<- line
| Initial energy = -6.315359E+003 eV; initial dE/dstep = -1.550E-002 eV |<- line
|                                                                       |<- line
|            1st step    2nd step    3rd step    4th step    5th step   |<- line
+--------+--------------------------------------------------------------+<- line
| step   |  1.500E+00   7.539E-01* unnecessary unnecessary unnecessary  |<- line
| gain   |  1.208E-04   5.844E-03* unnecessary unnecessary unnecessary  |<- line
+--------+--------------------------------------------------------------+<- line
 * indicates the final, accepted state (should have the lowest energy)          
 
+------------------- WAVEFUNCTION LINE MINIMISATION --------------------+<- line
| Initial energy = -6.315365E+003 eV; initial dE/dstep = -8.764E-003 eV |<- line
|                                                                       |<- line
|            1st step    2nd step    3rd step    4th step    5th step   |<- line
+--------+--------------------------------------------------------------+<- line
| step   |  1.500E+00   1.305E+00* unnecessary unnecessary unnecessary  |<- line
| gain   |  5.593E-03   5.721E-03* unnecessary unnecessary unnecessary  |<- line
+--------+--------------------------------------------------------------+<- line
 * indicates the final, accepted state (should have the lowest energy)          
 
+------------------- WAVEFUNCTION LINE MINIMISATION --------------------+<- line
| Initial energy = -6.315370E+003 eV; initial dE/dstep = -6.547E-003 eV |<- line
|                                                                       |<- line
|            1st step    2nd step    3rd step    4th step    5th step   |<- line
+--------+--------------------------------------------------------------+<- line
| step   |  1.500E+00   1.137E+00* unnecessary unnecessary unnecessary  |<- line
| gain   |  3.346E-03   3.725E-03* unnecessary unnecessary unnecessary  |<- line
+--------+--------------------------------------------------------------+<- line
 * indicates the final, accepted state (should have the lowest energy)          
 
+------------------- WAVEFUNCTION LINE MINIMISATION --------------------+<- line
| Initial energy = -6.315374E+003 eV; initial dE/dstep = -4.039E-003 eV |<- line
|                                                                       |<- line
|            1st step    2nd step    3rd step    4th step    5th step   |<- line
+--------+--------------------------------------------------------------+<- line
| step   |  1.500E+00   1.064E+00* unnecessary unnecessary unnecessary  |<- line
| gain   |  1.790E-03   2.150E-03* unnecessary unnecessary unnecessary  |<- line
+--------+--------------------------------------------------------------+<- line
 * indicates the final, accepted state (should have the lowest energy)          
 
+------------------- WAVEFUNCTION LINE MINIMISATION --------------------+<- line
| Initial energy = -6.315376E+003 eV; initial dE/dstep = -2.267E-003 eV |<- line
|                                                                       |<- line
|            1st step    2nd step    3rd step    4th step    5th step   |<- line
+--------+--------------------------------------------------------------+<- line
| step   |  1.500E+00   9.673E-01* unnecessary unnecessary unnecessary  |<- line
| gain   |  7.639E-04   1.097E-03* unnecessary unnecessary unnecessary  |<- line
+--------+--------------------------------------------------------------+<- line
 * indicates the final, accepted state (should have the lowest energy)          
 
+------------------- WAVEFUNCTION LINE MINIMISATION --------------------+<- line
| Initial energy = -6.315377E+003 eV; initial dE/dstep = -1.107E-003 eV |<- line
|                                                                       |<- line
|            1st step    2nd step    3rd step    4th step    5th step   |<- line
+--------+--------------------------------------------------------------+<- line
| step   |  1.500E+00   9.844E-01* unnecessary unnecessary unnecessary  |<- line
| gain   |  3.955E-04   5.451E-04* unnecessary unnecessary unnecessary  |<- line
+--------+--------------------------------------------------------------+<- line
 * indicates the final, accepted state (should have the lowest energy)          
 
+------------------- WAVEFUNCTION LINE MINIMISATION --------------------+<- line
| Initial energy = -6.315378E+003 eV; initial dE/dstep = -4.467E-004 eV |<- line
|                                                                       |<- line
|            1st step    2nd step    3rd step    4th step    5th step   |<- line
+--------+--------------------------------------------------------------+<- line
| step   |  1.500E+00   1.095E+00* unnecessary unnecessary unnecessary  |<- line
| gain   |  2.111E-04   2.446E-04* unnecessary unnecessary unnecessary  |<- line
+--------+--------------------------------------------------------------+<- line
 * indicates the final, accepted state (should have the lowest energy)          
 
+------------------- WAVEFUNCTION LINE MINIMISATION --------------------+<- line
| Initial energy = -6.315378E+003 eV; initial dE/dstep = -2.260E-004 eV |<- line
|                                                                       |<- line
|            1st step    2nd step    3rd step    4th step    5th step   |<- line
+--------+--------------------------------------------------------------+<- line
| step   |  1.500E+00   1.095E+00* unnecessary unnecessary unnecessary  |<- line
| gain   |  1.069E-04   1.238E-04* unnecessary unnecessary unnecessary  |<- line
+--------+--------------------------------------------------------------+<- line
 * indicates the final, accepted state (should have the lowest energy)          
 
+------------------- WAVEFUNCTION LINE MINIMISATION --------------------+<- line
| Initial energy = -6.315378E+003 eV; initial dE/dstep = -1.388E-004 eV |<- line
|                                                                       |<- line
|            1st step    2nd step    3rd step    4th step    5th step   |<- line
+--------+--------------------------------------------------------------+<- line
| step   |  1.500E+00   1.070E+00* unnecessary unnecessary unnecessary  |<- line
| gain   |  6.222E-05   7.424E-05* unnecessary unnecessary unnecessary  |<- line
+--------+--------------------------------------------------------------+<- line
 * indicates the final, accepted state (should have the lowest energy)          
 
      2  -6.31537839E+003                    1.62694745E-003     149.31  <-- SCF
+------------------- WAVEFUNCTION LINE MINIMISATION --------------------+<- line
| Initial energy = -6.315378E+003 eV; initial dE/dstep = -8.753E-005 eV |<- line
|                                                                       |<- line
|            1st step    2nd step    3rd step    4th step    5th step   |<- line
+--------+--------------------------------------------------------------+<- line
| step   |  1.500E+00   7.015E-01* unnecessary unnecessary unnecessary  |<- line
| gain   | -9.078E-06   3.070E-05* unnecessary unnecessary unnecessary  |<- line
+--------+--------------------------------------------------------------+<- line
 * indicates the final, accepted state (should have the lowest energy)          
 
+------------------- WAVEFUNCTION LINE MINIMISATION --------------------+<- line
| Initial energy = -6.315378E+003 eV; initial dE/dstep = -3.714E-005 eV |<- line
|                                                                       |<- line
|            1st step    2nd step    3rd step    4th step    5th step   |<- line
+--------+--------------------------------------------------------------+<- line
| step   |  1.500E+00   1.070E+00* unnecessary unnecessary unnecessary  |<- line
| gain   |  1.668E-05   1.988E-05* unnecessary unnecessary unnecessary  |<- line
+--------+--------------------------------------------------------------+<- line
 * indicates the final, accepted state (should have the lowest energy)          
 
+------------------- WAVEFUNCTION LINE MINIMISATION --------------------+<- line
| Initial energy = -6.315378E+003 eV; initial dE/dstep = -2.084E-005 eV |<- line
|                                                                       |<- line
|            1st step    2nd step    3rd step    4th step    5th step   |<- line
+--------+--------------------------------------------------------------+<- line
| step   |  1.500E+00   1.128E+00* unnecessary unnecessary unnecessary  |<- line
| gain   |  1.047E-05   1.175E-05* unnecessary unnecessary unnecessary  |<- line
+--------+--------------------------------------------------------------+<- line
 * indicates the final, accepted state (should have the lowest energy)          
 
+------------------- WAVEFUNCTION LINE MINIMISATION --------------------+<- line
| Initial energy = -6.315378E+003 eV; initial dE/dstep = -1.348E-005 eV |<- line
|                                                                       |<- line
|            1st step    2nd step    3rd step    4th step    5th step   |<- line
+--------+--------------------------------------------------------------+<- line
| step   |  1.500E+00   1.180E+00* unnecessary unnecessary unnecessary  |<- line
| gain   |  7.365E-06   7.952E-06* unnecessary unnecessary unnecessary  |<- line
+--------+--------------------------------------------------------------+<- line
 * indicates the final, accepted state (should have the lowest energy)          
 
+------------------- WAVEFUNCTION LINE MINIMISATION --------------------+<- line
| Initial energy = -6.315378E+003 eV; initial dE/dstep = -8.195E-006 eV |<- line
|                                                                       |<- line
|            1st step    2nd step    3rd step    4th step    5th step   |<- line
+--------+--------------------------------------------------------------+<- line
| step   |  1.500E+00   9.926E-01* unnecessary unnecessary unnecessary  |<- line
| gain   |  3.005E-06   4.067E-06* unnecessary unnecessary unnecessary  |<- line
+--------+--------------------------------------------------------------+<- line
 * indicates the final, accepted state (should have the lowest energy)          
 
+------------------- WAVEFUNCTION LINE MINIMISATION --------------------+<- line
| Initial energy = -6.315378E+003 eV; initial dE/dstep = -4.352E-006 eV |<- line
|                                                                       |<- line
|            1st step    2nd step    3rd step    4th step    5th step   |<- line
+--------+--------------------------------------------------------------+<- line
| step   |  1.500E+00   1.005E+00* unnecessary unnecessary unnecessary  |<- line
| gain   |  1.659E-06   2.188E-06* unnecessary unnecessary unnecessary  |<- line
+--------+--------------------------------------------------------------+<- line
 * indicates the final, accepted state (should have the lowest energy)          
 
+------------------- WAVEFUNCTION LINE MINIMISATION --------------------+<- line
| Initial energy = -6.315378E+003 eV; initial dE/dstep = -1.972E-006 eV |<- line
|                                                                       |<- line
|            1st step    2nd step    3rd step    4th step    5th step   |<- line
+--------+--------------------------------------------------------------+<- line
| step   |  1.500E+00   1.031E+00* unnecessary unnecessary unnecessary  |<- line
| gain   |  8.053E-07   1.016E-06* unnecessary unnecessary unnecessary  |<- line
+--------+--------------------------------------------------------------+<- line
 * indicates the final, accepted state (should have the lowest energy)          
 
+------------------- WAVEFUNCTION LINE MINIMISATION --------------------+<- line
| Initial energy = -6.315378E+003 eV; initial dE/dstep = -9.787E-007 eV |<- line
|                                                                       |<- line
|            1st step    2nd step    3rd step    4th step    5th step   |<- line
+--------+--------------------------------------------------------------+<- line
| step   |  1.500E+00   9.935E-01* unnecessary unnecessary unnecessary  |<- line
| gain   |  3.598E-07   4.862E-07* unnecessary unnecessary unnecessary  |<- line
+--------+--------------------------------------------------------------+<- line
 * indicates the final, accepted state (should have the lowest energy)          
 
+------------------- WAVEFUNCTION LINE MINIMISATION --------------------+<- line
| Initial energy = -6.315378E+003 eV; initial dE/dstep = -4.171E-007 eV |<- line
|                                                                       |<- line
|            1st step    2nd step    3rd step    4th step    5th step   |<- line
+--------+--------------------------------------------------------------+<- line
| step   |  1.500E+00   9.674E-01* unnecessary unnecessary unnecessary  |<- line
| gain   |  1.406E-07   2.018E-07* unnecessary unnecessary unnecessary  |<- line
+--------+--------------------------------------------------------------+<- line
 * indicates the final, accepted state (should have the lowest energy)          
 
      3  -6.31537847E+003                    6.52023338E-006     201.52  <-- SCF
+------------------- WAVEFUNCTION LINE MINIMISATION --------------------+<- line
| Initial energy = -6.315378E+003 eV; initial dE/dstep = -3.090E-007 eV |<- line
|                                                                       |<- line
|            1st step    2nd step    3rd step    4th step    5th step   |<- line
+--------+--------------------------------------------------------------+<- line
| step   |  1.500E+00   7.456E-01* unnecessary unnecessary unnecessary  |<- line
| gain   | -2.763E-09   1.152E-07* unnecessary unnecessary unnecessary  |<- line
+--------+--------------------------------------------------------------+<- line
 * indicates the final, accepted state (should have the lowest energy)          
 
+------------------- WAVEFUNCTION LINE MINIMISATION --------------------+<- line
| Initial energy = -6.315378E+003 eV; initial dE/dstep = -1.708E-007 eV |<- line
|                                                                       |<- line
|            1st step    2nd step    3rd step    4th step    5th step   |<- line
+--------+--------------------------------------------------------------+<- line
| step   |  1.500E+00   1.330E+00* unnecessary unnecessary unnecessary  |<- line
| gain   |  1.118E-07   1.136E-07* unnecessary unnecessary unnecessary  |<- line
+--------+--------------------------------------------------------------+<- line
 * indicates the final, accepted state (should have the lowest energy)          
 
+------------------- WAVEFUNCTION LINE MINIMISATION --------------------+<- line
| Initial energy = -6.315378E+003 eV; initial dE/dstep = -1.316E-007 eV |<- line
|                                                                       |<- line
|            1st step    2nd step    3rd step    4th step    5th step   |<- line
+--------+--------------------------------------------------------------+<- line
| step   |  1.500E+00   1.060E+00* unnecessary unnecessary unnecessary  |<- line
| gain   |  5.778E-08   6.976E-08* unnecessary unnecessary unnecessary  |<- line
+--------+--------------------------------------------------------------+<- line
 * indicates the final, accepted state (should have the lowest energy)          
 
+------------------- WAVEFUNCTION LINE MINIMISATION --------------------+<- line
| Initial energy = -6.315378E+003 eV; initial dE/dstep = -7.483E-008 eV |<- line
|                                                                       |<- line
|            1st step    2nd step    3rd step    4th step    5th step   |<- line
+--------+--------------------------------------------------------------+<- line
| step   |  1.500E+00   1.086E+00* unnecessary unnecessary unnecessary  |<- line
| gain   |  3.473E-08   4.063E-08* unnecessary unnecessary unnecessary  |<- line
+--------+--------------------------------------------------------------+<- line
 * indicates the final, accepted state (should have the lowest energy)          
 
+------------------- WAVEFUNCTION LINE MINIMISATION --------------------+<- line
| Initial energy = -6.315378E+003 eV; initial dE/dstep = -4.002E-008 eV |<- line
|                                                                       |<- line
|            1st step    2nd step    3rd step    4th step    5th step   |<- line
+--------+--------------------------------------------------------------+<- line
| step   |  1.500E+00   9.811E-01* unnecessary unnecessary unnecessary  |<- line
| gain   |  1.414E-08   1.966E-08* unnecessary unnecessary unnecessary  |<- line
+--------+--------------------------------------------------------------+<- line
 * indicates the final, accepted state (should have the lowest energy)          
 
+------------------- WAVEFUNCTION LINE MINIMISATION --------------------+<- line
| Initial energy = -6.315378E+003 eV; initial dE/dstep = -2.020E-008 eV |<- line
|                                                                       |<- line
|            1st step    2nd step    3rd step    4th step    5th step   |<- line
+--------+--------------------------------------------------------------+<- line
| step   |  1.500E+00   1.015E+00* unnecessary unnecessary unnecessary  |<- line
| gain   |  7.914E-09   1.023E-08* unnecessary unnecessary unnecessary  |<- line
+--------+--------------------------------------------------------------+<- line
 * indicates the final, accepted state (should have the lowest energy)          
 
+------------------- WAVEFUNCTION LINE MINIMISATION --------------------+<- line
| Initial energy = -6.315378E+003 eV; initial dE/dstep = -8.833E-009 eV |<- line
|                                                                       |<- line
|            1st step    2nd step    3rd step    4th step    5th step   |<- line
+--------+--------------------------------------------------------------+<- line
| step   |  1.500E+00   1.032E+00* unnecessary unnecessary unnecessary  |<- line
| gain   |  3.617E-09   4.568E-09* unnecessary unnecessary unnecessary  |<- line
+--------+--------------------------------------------------------------+<- line
 * indicates the final, accepted state (should have the lowest energy)          
 
+------------------- WAVEFUNCTION LINE MINIMISATION --------------------+<- line
| Initial energy = -6.315378E+003 eV; initial dE/dstep = -4.717E-009 eV |<- line
|                                                                       |<- line
|            1st step    2nd step    3rd step    4th step    5th step   |<- line
+--------+--------------------------------------------------------------+<- line
| step   |  1.500E+00   1.089E+00* unnecessary unnecessary unnecessary  |<- line
| gain   |  2.203E-09   2.578E-09* unnecessary unnecessary unnecessary  |<- line
+--------+--------------------------------------------------------------+<- line
 * indicates the final, accepted state (should have the lowest energy)          
 
+------------------- WAVEFUNCTION LINE MINIMISATION --------------------+<- line
| Initial energy = -6.315378E+003 eV; initial dE/dstep = -2.733E-009 eV |<- line
|                                                                       |<- line
|            1st step    2nd step    3rd step    4th step    5th step   |<- line
+--------+--------------------------------------------------------------+<- line
| step   |  1.500E+00   1.026E+00* unnecessary unnecessary unnecessary  |<- line
| gain   |  1.103E-09   1.384E-09* unnecessary unnecessary unnecessary  |<- line
+--------+--------------------------------------------------------------+<- line
 * indicates the final, accepted state (should have the lowest energy)          
 
      4  -6.31537847E+003                    3.14686330E-008     253.77  <-- SCF
+------------------- WAVEFUNCTION LINE MINIMISATION --------------------+<- line
| Initial energy = -6.315378E+003 eV; initial dE/dstep = -2.162E-009 eV |<- line
|                                                                       |<- line
|            1st step    2nd step    3rd step    4th step    5th step   |<- line
+--------+--------------------------------------------------------------+<- line
| step   |  1.500E+00   7.011E-01* unnecessary unnecessary unnecessary  |<- line
| gain   | -2.258E-10   7.541E-10* unnecessary unnecessary unnecessary  |<- line
+--------+--------------------------------------------------------------+<- line
 * indicates the final, accepted state (should have the lowest energy)          
 
+------------------- WAVEFUNCTION LINE MINIMISATION --------------------+<- line
| Initial energy = -6.315378E+003 eV; initial dE/dstep = -9.195E-010 eV |<- line
|                                                                       |<- line
|            1st step    2nd step    3rd step    4th step    5th step   |<- line
+--------+--------------------------------------------------------------+<- line
| step   |  1.500E+00   1.110E+00* unnecessary unnecessary unnecessary  |<- line
| gain   |  4.470E-10   5.220E-10* unnecessary unnecessary unnecessary  |<- line
+--------+--------------------------------------------------------------+<- line
 * indicates the final, accepted state (should have the lowest energy)          
 
+------------------- WAVEFUNCTION LINE MINIMISATION --------------------+<- line
| Initial energy = -6.315378E+003 eV; initial dE/dstep = -5.484E-010 eV |<- line
|                                                                       |<- line
|            1st step    2nd step    3rd step    4th step    5th step   |<- line
+--------+--------------------------------------------------------------+<- line
| step   |  1.500E+00   1.079E+00* unnecessary unnecessary unnecessary  |<- line
| gain   |  2.514E-10   2.676E-10* unnecessary unnecessary unnecessary  |<- line
+--------+--------------------------------------------------------------+<- line
 * indicates the final, accepted state (should have the lowest energy)          
 
+------------------- WAVEFUNCTION LINE MINIMISATION --------------------+<- line
| Initial energy = -6.315378E+003 eV; initial dE/dstep = -3.364E-010 eV |<- line
|                                                                       |<- line
|            1st step    2nd step    3rd step    4th step    5th step   |<- line
+--------+--------------------------------------------------------------+<- line
| step   |  1.500E+00   1.265E+00* unnecessary unnecessary unnecessary  |<- line
| gain   |  2.049E-10   2.220E-10* unnecessary unnecessary unnecessary  |<- line
+--------+--------------------------------------------------------------+<- line
 * indicates the final, accepted state (should have the lowest energy)          
 
+------------------- WAVEFUNCTION LINE MINIMISATION --------------------+<- line
| Initial energy = -6.315378E+003 eV; initial dE/dstep = -2.165E-010 eV |<- line
|                                                                       |<- line
|            1st step    2nd step    3rd step    4th step    5th step   |<- line
+--------+--------------------------------------------------------------+<- line
| step   |  1.500E+00   8.974E-01* unnecessary unnecessary unnecessary  |<- line
| gain   |  5.336E-11   8.739E-11* unnecessary unnecessary unnecessary  |<- line
+--------+--------------------------------------------------------------+<- line
 * indicates the final, accepted state (should have the lowest energy)          
 
+------------------- WAVEFUNCTION LINE MINIMISATION --------------------+<- line
| Initial energy = -6.315378E+003 eV; initial dE/dstep = -1.045E-010 eV |<- line
|                                                                       |<- line
|            1st step    2nd step    3rd step    4th step    5th step   |<- line
+--------+--------------------------------------------------------------+<- line
| step   |  1.500E+00*  1.728E+00  unnecessary unnecessary unnecessary  |<- line
| gain   |  8.894E-11*  4.408E-11  unnecessary unnecessary unnecessary  |<- line
+--------+--------------------------------------------------------------+<- line
 * indicates the final, accepted state (should have the lowest energy)          
 
line_minimisation: wavefunction *unchanged*
+------------------- WAVEFUNCTION LINE MINIMISATION --------------------+<- line
| Initial energy = -6.315378E+003 eV; initial dE/dstep = -6.617E-011 eV |<- line
|                                                                       |<- line
|            1st step    2nd step    3rd step    4th step    5th step   |<- line
+--------+--------------------------------------------------------------+<- line
| step   |  1.500E+00   5.905E-01   1.848E-01   1.199E+00  unnecessary  |<- line
| gain   | -2.707E-11  -1.237E-11  -9.281E-12  -1.005E-11  unnecessary  |<- line
+--------+--------------------------------------------------------------+<- line
 * indicates the final, accepted state (should have the lowest energy)          
 
+------------------- WAVEFUNCTION LINE MINIMISATION --------------------+<- line
| Initial energy = -6.315378E+003 eV; initial dE/dstep = -1.842E-010 eV |<- line
|                                                                       |<- line
|            1st step    2nd step    3rd step    4th step    5th step   |<- line
+--------+--------------------------------------------------------------+<- line
| step   |  9.000E-01   3.238E-01* unnecessary unnecessary unnecessary  |<- line
| gain   | -6.497E-11   3.094E-12* unnecessary unnecessary unnecessary  |<- line
+--------+--------------------------------------------------------------+<- line
 * indicates the final, accepted state (should have the lowest energy)          
 
+------------------- WAVEFUNCTION LINE MINIMISATION --------------------+<- line
| Initial energy = -6.315378E+003 eV; initial dE/dstep = -3.155E-011 eV |<- line
|                                                                       |<- line
|            1st step    2nd step    3rd step    4th step    5th step   |<- line
+--------+--------------------------------------------------------------+<- line
| step   |  1.500E+00   6.849E-01* unnecessary unnecessary unnecessary  |<- line
| gain   | -4.640E-12   4.640E-12* unnecessary unnecessary unnecessary  |<- line
+--------+--------------------------------------------------------------+<- line
 * indicates the final, accepted state (should have the lowest energy)          
 
      5  -6.31537847E+003                    1.62154966E-010     309.47  <-- SCF
+------------------- WAVEFUNCTION LINE MINIMISATION --------------------+<- line
| Initial energy = -6.315378E+003 eV; initial dE/dstep = -1.953E-011 eV |<- line
|                                                                       |<- line
|            1st step    2nd step    3rd step    4th step    5th step   |<- line
+--------+--------------------------------------------------------------+<- line
| step   |  1.500E+00*  1.052E+00  unnecessary unnecessary unnecessary  |<- line
| gain   |  8.507E-12* -2.320E-12  unnecessary unnecessary unnecessary  |<- line
+--------+--------------------------------------------------------------+<- line
 * indicates the final, accepted state (should have the lowest energy)          
 
+------------------- WAVEFUNCTION LINE MINIMISATION --------------------+<- line
| Initial energy = -6.315378E+003 eV; initial dE/dstep = -8.750E-011 eV |<- line
|                                                                       |<- line
|            1st step    2nd step    3rd step    4th step    5th step   |<- line
+--------+--------------------------------------------------------------+<- line
| step   |  1.500E+00   4.529E-01* unnecessary unnecessary unnecessary  |<- line
| gain   | -8.585E-11   7.734E-13* unnecessary unnecessary unnecessary  |<- line
+--------+--------------------------------------------------------------+<- line
 * indicates the final, accepted state (should have the lowest energy)          
 
+------------------- WAVEFUNCTION LINE MINIMISATION --------------------+<- line
| Initial energy = -6.315378E+003 eV; initial dE/dstep = -4.403E-012 eV |<- line
|                                                                       |<- line
|            1st step    2nd step    3rd step    4th step    5th step   |<- line
+--------+--------------------------------------------------------------+<- line
| step   |  1.500E+00*  2.135E+00  unnecessary unnecessary unnecessary  |<- line
| gain   |  4.640E-12* -4.640E-12  unnecessary unnecessary unnecessary  |<- line
+--------+--------------------------------------------------------------+<- line
[...]
 +  representations may be also be present corresponding to split LO modes.   +
 +  A conventional analysis can be generated by specifying an additional null +
 +  (all zero) field direction or one along any unique crystallographic axis  +
 +  in %BLOCK PHONON_GAMMA_DIRECTIONS in <seedname>.cell.)                    +
 + .......................................................................... +
 +  Rep  Mul |    E   I                                                       +
 +           | --------                                                       +
 + a Au   18 |    1  -1                                                       +
 + b Ag   18 |    1   1                                                       +
 ==============================================================================
Checkpointing calculation.
No previous checkpoint time recorded. Continue execution.

 ******************************* User Parameters *******************************
iprint                  : 2                # verbosity control (I)
calculatestress         : T                # stress on/off (L)
calculatedensdiff       : F                # calculate density difference based on atoms (L)
electronicminimizer     : CG               # electronic minimization method (S)
maxcgsteps              : 8                # max. number of conjugate gradient steps (I)
elecenergytol           : 0.0000000 ev     # total energy per atom convergence tolerance (P)
maxscfcycles            : 200              # maximum SCF cycles (I)
numdumpcycles           : 0                # frequency of wavefunction dumps (I)
popncalculate           : T                # population analysis on/off (L)
pdoscalculateweights    : F                # partial DOS analysis on/off (L)
geommaxiter             : 100              # maximum number of geometry optimization iterations (I)
geomenergytol           : 0.0000010 ev     # geometry optimization energy convergence tolerance (P)
geomforcetol            : 0.0010000 ev/ang # geometry optimization force convergence tolerance (P)
geomdisptol             : 0.0002000 ang    # geometry optimization displacement convergence tolerance (P)
geomstresstol           : 0.0010000 gpa    # geometry optimization stress convergence tolerance (P)
phononmaxcycles         : 400              # maximum cycles in LR (I)
phononcalclotosplitting : T                # gamma-point phonon LO/TO correction (L)
calculateborncharges    : T                # calculate Born effective charges (L)
bornchargesumrule       : T                # enforce Born charge sum rule (L)
efieldmaxcycles         : 400              # maximum cycles in EFIELD (I)

 *******************************************************************************
  
 ??????????????????????????????????????????????????????????????????????????????? 
     ERROR calculating ionic contribution to permittivity
     tiny or imaginary frequency     0.224718E-01 * i cm-1 detected
     Ionic Permittivity is divergent or infinite.
 ??????????????????????????????????????????????????????????????????????????????? 

 ===============================================================================
        Optical Permittivity (f->infinity)             DC Permittivity (f=0)
        ----------------------------------             ---------------------
         2.26111    -0.04199    -0.10634        Infinity    Infinity    Infinity
        -0.04199     2.20331     0.07345        Infinity    Infinity    Infinity
        -0.10634     0.07345     2.34564        Infinity    Infinity    Infinity
 ===============================================================================

 ===============================================================================
                                    Polarisabilities (A**3)
                Optical (f->infinity)                       Static  (f=0)
                ---------------------                       -------------
        15.24211    -0.50751    -1.28525        Infinity    Infinity    Infinity
        -0.50751    14.54346     0.88777        Infinity    Infinity    Infinity
        -1.28525     0.88777    16.26377        Infinity    Infinity    Infinity
 ===============================================================================
 ===================================================
                   Born Effective Charges
                   ----------------------
   O       1       -0.53495     0.23642     0.31703
                    0.19022    -0.82720    -0.35398
                    0.29939    -0.38214    -0.76584
   O       2       -0.53495     0.23642     0.31703
                    0.19022    -0.82720    -0.35398
                    0.29939    -0.38214    -0.76584
   O       3       -1.23982    -0.26405     0.41395
                   -0.46979    -1.15973     0.37792
                    0.38230     0.17050    -1.18245
   O       4       -1.23982    -0.26405     0.41395
                   -0.46979    -1.15973     0.37792
                    0.38230     0.17050    -1.18245
   O       5       -1.37389    -0.39429    -0.57208
                   -0.16191    -1.09258    -0.44792
                   -0.27070    -0.26838    -1.33927
   O       6       -1.37389    -0.39429    -0.57208
                   -0.16191    -1.09258    -0.44792
                   -0.27070    -0.26838    -1.33927
   O       7       -1.14031     0.32870    -0.15207
                    0.53946    -1.36931     0.13390
                   -0.34869     0.40765    -1.16642
   O       8       -1.14031     0.32870    -0.15207
                    0.53946    -1.36931     0.13390
                   -0.34869     0.40765    -1.16642
   Na      1        1.19274     0.03601     0.03810
                    0.04528     1.19306    -0.03882
                    0.03919    -0.03689     1.18166
   Na      2        1.19274     0.03601     0.03810
                    0.04528     1.19306    -0.03882
                    0.03919    -0.03689     1.18166
   S       1        3.09623     0.05721    -0.04493
                   -0.14327     3.25576     0.32890
                   -0.10149     0.10926     3.27232
   S       2        3.09623     0.05721    -0.04493
                   -0.14327     3.25576     0.32890
                   -0.10149     0.10926     3.27232
 ===================================================

 ******************** Symmetrised Forces ********************
 *                                                          *
 *               Cartesian components (eV/A)                *
 * -------------------------------------------------------- *
 *                         x            y            z      *
 *                                                          *
 * O               1      0.00001      0.00007      0.00013 *
 * O               2     -0.00001     -0.00007     -0.00013 *
 * O               3      0.00008      0.00022     -0.00008 *
 * O               4     -0.00008     -0.00022      0.00008 *
 * O               5     -0.00006     -0.00018      0.00047 *
 * O               6      0.00006      0.00018     -0.00047 *
 * O               7     -0.00030     -0.00000     -0.00018 *
 * O               8      0.00030      0.00000      0.00018 *
 * Na              1      0.00011      0.00013      0.00031 *
 * Na              2     -0.00011     -0.00013     -0.00031 *
 * S               1      0.00024      0.00009      0.00018 *
 * S               2     -0.00024     -0.00009     -0.00018 *
 *                                                          *
 ************************************************************

 ************** Ewald stress tensor **************
 *                                               *
 *          Cartesian components (GPa)           *
 * --------------------------------------------- *
 *             x             y             z     *
 *                                               *
 *  x   1324.099281   -157.935713    234.508261  *
 *  y   -157.935713   1418.517523     70.332752  *
 *  z    234.508261     70.332752   1091.740265  *
 *                                               *
 *  Pressure:-1278.1190                          *
 *                                               *
 *************************************************

 ********* Kinetic energy stress tensor **********
 *                                               *
 *          Cartesian components (GPa)           *
 * --------------------------------------------- *
 *             x             y             z     *
 *                                               *
 *  x  -2582.397276     22.384802    -32.410103  *
 *  y     22.384802  -2593.404385    -21.636091  *
 *  z    -32.410103    -21.636091  -2580.652502  *
 *                                               *
 *  Pressure: 2585.4847                          *
 *                                               *
 *************************************************

 ********* Local potential stress tensor *********
 *                                               *
 *          Cartesian components (GPa)           *
 * --------------------------------------------- *
 *             x             y             z     *
 *                                               *
 *  x   1360.638044    147.946015   -220.682660  *
 *  y    147.946015   1265.041328    -61.268018  *
 *  z   -220.682660    -61.268018   1592.273208  *
 *                                               *
 *  Pressure:-1405.9842                          *
 *                                               *
 *************************************************

 ******* Non-local potential stress tensor *******
 *                                               *
 *          Cartesian components (GPa)           *
 * --------------------------------------------- *
 *             x             y             z     *
 *                                               *
 *  x   -100.102777    -12.327719     17.803226  *
 *  y    -12.327719    -88.503301     13.029808  *
 *  z     17.803226     13.029808   -101.087980  *
 *                                               *
 *  Pressure:   96.5647                          *
 *                                               *
 *************************************************

 *** NL screened/exact exchange stress tensor ****
 *                                               *
 *          Cartesian components (GPa)           *
 * --------------------------------------------- *
 *             x             y             z     *
 *                                               *
 *  x      0.000000      0.000000      0.000000  *
 *  y      0.000000      0.000000      0.000000  *
 *  z      0.000000      0.000000      0.000000  *
 *                                               *
 *  Pressure:   -0.0000                          *
 *                                               *
 *************************************************

 ************** MGGA stress tensor ***************
 *                                               *
 *          Cartesian components (GPa)           *
 * --------------------------------------------- *
 *             x             y             z     *
 *                                               *
 *  x      0.000000      0.000000      0.000000  *
 *  y      0.000000      0.000000      0.000000  *
 *  z      0.000000      0.000000      0.000000  *
 *                                               *
 *  Pressure:   -0.0000                          *
 *                                               *
 *************************************************

 *********** Symmetrised Stress Tensor ***********
 *                                               *
 *          Cartesian components (GPa)           *
 * --------------------------------------------- *
 *             x             y             z     *
 *                                               *
 *  x      2.237272      0.067385     -0.781276  *
 *  y      0.067385      1.651165      0.458451  *
 *  z     -0.781276      0.458451      2.272991  *
 *                                               *
 *  Pressure:   -2.0538                          *
 *                                               *
 *************************************************

 Pseudo atomic calculation performed for O 2s2 2p4

 Converged in 46 iterations to a total energy of -421.5931 eV

 Pseudo atomic calculation performed for Na 2s2 2p6 3s1

 Converged in 32 iterations to a total energy of -1154.2432 eV

 Pseudo atomic calculation performed for S 3s2 3p4

 Converged in 40 iterations to a total energy of -276.6591 eV
Charge spilling parameter for spin component 1 = 1.49%

            Orbital Populations       
     Ion    Atom   Orbital             Charge
  -------------------------------------------
      O     1      S                    1.660
      O     1      Px                   1.606
      O     1      Py                   1.663
      O     1      Pz                   1.501
      O     2      S                    1.660
      O     2      Px                   1.606
      O     2      Py                   1.663
      O     2      Pz                   1.501
      O     3      S                    1.852
      O     3      Px                   1.693
      O     3      Py                   1.691
      O     3      Pz                   1.721
      O     4      S                    1.852
      O     4      Px                   1.693
      O     4      Py                   1.691
      O     4      Pz                   1.721
      O     5      S                    1.849
      O     5      Px                   1.628
      O     5      Py                   1.771
      O     5      Pz                   1.719
      O     6      S                    1.849
      O     6      Px                   1.627
      O     6      Py                   1.772
      O     6      Pz                   1.719
      O     7      S                    1.853
      O     7      Px                   1.735
      O     7      Py                   1.668
      O     7      Pz                   1.703
      O     8      S                    1.853
      O     8      Px                   1.735
      O     8      Py                   1.668
      O     8      Pz                   1.703
     Na     1      S                    1.999
     Na     1      Px                   2.000
     Na     1      Py                   1.999
     Na     1      Pz                   1.999
     Na     1      S                    0.083
     Na     1      Px                  -0.012
     Na     1      Py                  -0.003
     Na     1      Pz                   0.036
     Na     2      S                    1.999
     Na     2      Px                   2.000
     Na     2      Py                   1.999
     Na     2      Pz                   1.999
     Na     2      S                    0.083
     Na     2      Px                  -0.012
     Na     2      Py                  -0.003
     Na     2      Pz                   0.036
      S     1      S                    1.036
      S     1      Px                   0.845
      S     1      Py                   0.836
      S     1      Pz                   0.866
      S     2      S                    1.036
      S     2      Px                   0.845
      S     2      Py                   0.836
      S     2      Pz                   0.866
  -------------------------------------------
                           Total:      77.996
  -------------------------------------------
The total projected population is   77.996  -0.000

     Atomic Populations (Mulliken)
     -----------------------------
Species          Ion     s       p       d       f      Total   Charge (e)
==========================================================================
  O               1     1.660   4.770   0.000   0.000   6.430    -0.430
  O               2     1.660   4.770   0.000   0.000   6.430    -0.430
  O               3     1.852   5.104   0.000   0.000   6.957    -0.957
  O               4     1.852   5.104   0.000   0.000   6.957    -0.957
  O               5     1.849   5.118   0.000   0.000   6.967    -0.967
  O               6     1.849   5.118   0.000   0.000   6.967    -0.967
  O               7     1.853   5.106   0.000   0.000   6.959    -0.959
  O               8     1.853   5.106   0.000   0.000   6.959    -0.959
  Na              1     2.082   6.020   0.000   0.000   8.102     0.898
  Na              2     2.082   6.020   0.000   0.000   8.102     0.898
  S               1     1.036   2.547   0.000   0.000   3.583     2.417
  S               2     1.036   2.547   0.000   0.000   3.583     2.417
==========================================================================

                 Bond                   Population      Length (A)
======================================================================
               O 1 -- O 2                   -0.13        1.01742
               O 3 -- S 1                    0.71        1.38775
               O 4 -- S 2                    0.71        1.38775
               O 8 -- S 2                    0.67        1.39767
               O 7 -- S 1                    0.67        1.39767
               O 6 -- S 2                    0.66        1.39956
               O 5 -- S 1                    0.66        1.39956
               O 1 -- S 1                    0.33        1.59196
               O 2 -- S 2                    0.33        1.59196
               O 2 -- S 1                   -0.26        2.23990
               O 1 -- S 2                   -0.26        2.23990
               O 2 -- O 4                   -0.18        2.28629
               O 1 -- O 3                   -0.18        2.28629
               O 5 -- O 7                   -0.23        2.32281
               O 6 -- O 8                   -0.23        2.32281
               O 7 -- Na 2                   0.09        2.34310
               O 8 -- Na 1                   0.09        2.34310
               O 4 -- O 6                   -0.21        2.36428
               O 3 -- O 5                   -0.21        2.36428
               O 4 -- Na 2                   0.05        2.36540
               O 3 -- Na 1                   0.05        2.36540
               O 4 -- O 8                   -0.20        2.36640
               O 3 -- O 7                   -0.20        2.36640
               O 2 -- O 6                   -0.18        2.37340
               O 1 -- O 5                   -0.18        2.37340
               O 2 -- O 8                   -0.17        2.37690
               O 1 -- O 7                   -0.17        2.37690
               O 5 -- Na 1                   0.07        2.37981
               O 6 -- Na 2                   0.07        2.37981
               O 6 -- Na 1                   0.07        2.38194
               O 5 -- Na 2                   0.07        2.38194
               O 8 -- Na 2                   0.03        2.61475
               O 7 -- Na 1                   0.03        2.61475
               O 1 -- O 8                    0.00        2.67211
               O 2 -- O 7                    0.00        2.67211
               O 1 -- O 6                    0.01        2.69325
               O 2 -- O 5                    0.01        2.69325
               O 4 -- Na 1                   0.03        2.72019
               O 3 -- Na 2                   0.03        2.72019
======================================================================


Writing analysis data to phonon.castep_bin

Writing model to phonon.check
 
 A BibTeX formatted list of references used in this run has been written to 
 phonon.bib
 
Initialisation time =      0.99 s
Calculation time    =   4854.50 s
Finalisation time   =      0.36 s
Total time          =   4855.85 s
Peak Memory Use     = 786308 kB
 
Overall parallel efficiency rating: Satisfactory (65%)
 
Data was distributed by:-
G-vector (8-way); efficiency rating: Satisfactory (65%)
 
Parallel notes:
1) SMP optimisations were used (num_proc_in_smp=0).
2) k-points were not distributed.
