 +-------------------------------------------------+
 |                                                 |
 |      CCC   AA    SSS  TTTTT  EEEEE  PPPP        |
 |     C     A  A  S       T    E      P   P       |
 |     C     AAAA   SS     T    EEE    PPPP        |
 |     C     A  A     S    T    E      P           |
 |      CCC  A  A  SSS     T    EEEEE  P           |
 |                                                 |
 +-------------------------------------------------+
 |                                                 |
 | Welcome to Academic Release CASTEP version 24.1 |
 | Ab Initio Total Energy Program                  |
 |                                                 |
 | Authors:                                        |
 | M. Segall, M. Probert, C. Pickard, P. Hasnip,   |
 | S. Clark, K. Refson, J. R. Yates,               |
 | A. Bartok-Partay, M. Payne                      |
 |                                                 |
 | Contributors:                                   |
 | P. Lindan, P. Haynes, J. White, V. Milman,      |
 | N. Govind, M. Gibson, P. Tulip, V. Cocula,      |
 | B. Montanari, D. Quigley, M. Glover,            |
 | L. Bernasconi, A. Perlov, M. Plummer,           |
 | E. McNellis, J. Meyer, J. Gale, D. Jochym       |
 | J. Aarons, B. Walker, R. Gillen, D. Jones       |
 | T. Green, I. J. Bush, C. J. Armstrong,          |
 | E. J. Higgins, E. L. Brown, M. S. McFly,        |
 | J. Wilkins, B-C. Shih, P. J. P. Byrne,          |
 | R. J. Maurer, J. C. Womack, J. Dziedzic,        |
 | L. LeBlanc, T. K. Stenczel, J. Kermode,         |
 | S. Sturniolo, B. Shi, B. Durham, M. Evans,      |
 | M. J. Smith, A. Tamerus, Z. Hawkhead,           |
 | V. Ravindran, T. Hollins, S. A. Joyce,          |
 | R. T. Strong, A. M. Reilly, S. J. Donaldson     |
 |                                                 |
 | Copyright (c) 2000 - 2023                       |
 |                                                 |
 |     Distributed under license from Cambridge    |
 |     Enterprise for academic use only.           |
 |                                                 |
 | Please cite                                     |
 |                                                 |
 |     "First principles methods using CASTEP"     |
 |                                                 |
 |         Zeitschrift fuer Kristallographie       |
 |           220(5-6) pp. 567-570 (2005)           |
 |                                                 |
 | S. J. Clark, M. D. Segall, C. J. Pickard,       |
 | P. J. Hasnip, M. J. Probert, K. Refson,         |
 | M. C. Payne                                     |
 |                                                 |
 |       in all publications arising from          |
 |              your use of CASTEP                 |
 |                                                 |
 +-------------------------------------------------+
 |                                                 |
 |              http://www.castep.org              |
 |                                                 |
 +-------------------------------------------------+



 Compiled for linux_x86_64_gfortran10 on Tue, 16 Jul 2024 17:23:51 +0100
 from code version 6355fd106  Castep241_branch  Thu Mar 7 17:56:19 2024 +0000
 Compiler: GNU Fortran 14.1.1; Optimisation: fast
 Comms   : Open MPI v5.0.3
 MATHLIBS: default (LAPACK version 3.12.0)
 FFT Lib : default
 Fundamental constants values: CODATA 2018

 Run started: Tue, 13 Aug 2024 09:06:57 +0100

 ******************************* User Parameters *******************************
iprint                  : 2                # verbosity control (I)
task                    : phonon+efield    # type of calculation (S)
calculatestress         : T                # stress on/off (L)
calculatedensdiff       : F                # calculate density difference based on atoms (L)
pagewvfns               : 0                # page wavefunctions to disk (I)
optstrategy             : speed            # optimization strategy (S)
xcfunctional            : PBE              # exchange-correlation functional (S)
cutoffenergy            : 550.0000000 ev   # maximum energy of planewaves in basis set (P)
gridscale               : 2.0000000        # standard grid size (R)
finegridscale           : 3.0000000        # fine grid size (R)
finitebasiscorr         : none             # finite basis set correction (S)
charge                  : 0.0000000        # net charge (R)
spinpolarized           : F                # spin polarized (L)
nextrabands             : 0                # number of extra bands (I)
electronicminimizer     : CG               # electronic minimization method (S)
maxcgsteps              : 8                # max. number of conjugate gradient steps (I)
elecenergytol           : 0.0000000 ev     # total energy per atom convergence tolerance (P)
maxscfcycles            : 200              # maximum SCF cycles (I)
fixoccupancy            : T                # treat system as an insulator (L)
numdumpcycles           : 0                # frequency of wavefunction dumps (I)
mixingscheme            : Pulay            # density mixing scheme (S)
mixhistorylength        : 10               # number of densities in mixing scheme (I)
mixchargeamp            : 0.5000000        # charge density mixing amplitude (R)
mixchargegmax           : 1.5000000 1/ang  # maximum G-vector in charge mixing scheme (P)
popncalculate           : T                # population analysis on/off (L)
pdoscalculateweights    : F                # partial DOS analysis on/off (L)
geommethod              : BFGS             # geometry optimization method (S)
geommaxiter             : 100              # maximum number of geometry optimization iterations (I)
geomenergytol           : 0.0000010 ev     # geometry optimization energy convergence tolerance (P)
geomforcetol            : 0.0010000 ev/ang # geometry optimization force convergence tolerance (P)
geomdisptol             : 0.0002000 ang    # geometry optimization displacement convergence tolerance (P)
geomstresstol           : 0.0010000 gpa    # geometry optimization stress convergence tolerance (P)
phononmaxcycles         : 400              # maximum cycles in LR (I)
phononcalclotosplitting : T                # gamma-point phonon LO/TO correction (L)
calculateborncharges    : T                # calculate Born effective charges (L)
bornchargesumrule       : T                # enforce Born charge sum rule (L)
efieldmaxcycles         : 400              # maximum cycles in EFIELD (I)

 *******************************************************************************
  
 +-------------------------------------------------+
 |                                                 |
 |  D D D D    F F F F F  P P P P     T T T T T    |
 |  D       D  F          P       P       T        |
 |  D       D  F F F F    P P P P         T        |
 |  D       D  F          P               T        |
 |  D D D D    F          P               T        |
 |                                                 |
 +-------------------------------------------------+
 |                                                 |
 | Welcome to Castep Linear Response (DFPT)        |
 |                                                 |
 | Copyright (c) 2006 - 2023                       |
 |                                                 |
 | Please cite the following publications in all   |
 | work arising from your use of CASTEP LR.        |
 |                                                 |
 | K. Refson, S. J. Clark and P. R. Tulip          |
 | Variational density functional perturbation     |
 | theory for dielectrics and lattice dynamics     |
 | Phys. Rev. B 73(15), 155114 (2006)              |
 +-------------------------------------------------+


 Atomic calculation performed for O: 1s2 2s2 2p4

 Converged in 61 iterations to an ae energy of -2040.902 eV

    == Comparison of all-electron and pseudo eig ===
    ==         taken from descreening step.      ===
    == A more accurate error estimate is given   ===
    == by using the scf pseudo test -            ===
    == add [] to end of otfg string to activate  ===
    AE l  no    occ        eig (Ha)                 
    PS l  no               eig (Ha)         diff    
    ================================================
    ae 0   2   2.000    -0.8805710139
    ps 0   2            -0.8805797261    -0.8712E-05
    ae 1   1   4.000    -0.3318695172
    ps 1   1            -0.3318743576    -0.4840E-05
    ================================================
   ============================================================                
   | Pseudopotential Report - Date of generation 13-08-2024   |                
   ------------------------------------------------------------                
   | Element: O Ionic charge:  6.00 Level of theory: PBE      |                
   | Atomic Solver: Koelling-Harmon                           |                
   |                                                          |                
   |               Reference Electronic Structure             |                
   |         Orbital         Occupation         Energy        |                
   |            2s              2.000           -0.881        |                
   |            2p              4.000           -0.332        |                
   |                                                          |                
   |                 Pseudopotential Definition               |                
   |        Beta     l      e      Rc     scheme   norm       |                
   |          1      0   -0.881   1.196     qc      1         |                
   |          2      0    0.250   1.196     qc      1         |                
   |          3      1   -0.332   1.196     qc      1         |                
   |          4      1    0.250   1.196     qc      1         |                
   |         loc     2    0.000   1.196     pn      0         |                
   |                                                          |                
   | No charge augmentation                                   |                
   | Partial core correction Rc = 0.842                       |                
   ------------------------------------------------------------                
   | "2|1.2|23|26|31|20NN:21NN(qc=9)"                         |                
   ------------------------------------------------------------                
   |      Author: Chris J. Pickard, Cambridge University      |                
   ============================================================                

 Atomic calculation performed for Na: 1s2 2s2 2p6 3s1

 Converged in 65 iterations to an ae energy of -4418.769 eV

    == Comparison of all-electron and pseudo eig ===
    ==         taken from descreening step.      ===
    == A more accurate error estimate is given   ===
    == by using the scf pseudo test -            ===
    == add [] to end of otfg string to activate  ===
    AE l  no    occ        eig (Ha)                 
    PS l  no               eig (Ha)         diff    
    ================================================
    ae 0   2   2.000    -2.0856379570
    ps 0   2            -2.0856537668    -0.1581E-04
    ae 0   3   1.000    -0.1008383471
    ps 0   3            -0.1008376530     0.6941E-06
    ae 1   1   6.000    -1.0537088662
    ps 1   1            -1.0537096728    -0.8066E-06
    ================================================
   ============================================================                
   | Pseudopotential Report - Date of generation 13-08-2024   |                
   ------------------------------------------------------------                
   | Element: Na Ionic charge:  9.00 Level of theory: PBE     |                
   | Atomic Solver: Koelling-Harmon                           |                
   |                                                          |                
   |               Reference Electronic Structure             |                
   |         Orbital         Occupation         Energy        |                
   |            2s              2.000           -2.086        |                
   |            2p              6.000           -1.054        |                
   |            3s              1.000           -0.101        |                
   |                                                          |                
   |                 Pseudopotential Definition               |                
   |        Beta     l      e      Rc     scheme   norm       |                
   |          1      0   -2.086   1.495     qc      1         |                
   |          2      0   -0.101   1.495     qc      1         |                
   |          3      1   -1.054   1.495     qc      1         |                
   |         loc     2    0.000   1.495     pn      0         |                
   |                                                          |                
   | No charge augmentation                                   |                
   | Partial core correction Rc = 1.053                       |                
   ------------------------------------------------------------                
   | "2|1.5|20|23|26|20N:30N:21N(qc=8)"                       |                
   ------------------------------------------------------------                
   |      Author: Chris J. Pickard, Cambridge University      |                
   ============================================================                

 Atomic calculation performed for S: 1s2 2s2 2p6 3s2 3p4

 Converged in 58 iterations to an ae energy of -10858.586 eV

    == Comparison of all-electron and pseudo eig ===
    ==         taken from descreening step.      ===
    == A more accurate error estimate is given   ===
    == by using the scf pseudo test -            ===
    == add [] to end of otfg string to activate  ===
    AE l  no    occ        eig (Ha)                 
    PS l  no               eig (Ha)         diff    
    ================================================
    ae 0   3   2.000    -0.6341628832
    ps 0   3            -0.6341659872    -0.3104E-05
    ae 1   2   4.000    -0.2575667468
    ps 1   2            -0.2575683818    -0.1635E-05
    ================================================
   ============================================================                
   | Pseudopotential Report - Date of generation 13-08-2024   |                
   ------------------------------------------------------------                
   | Element: S Ionic charge:  6.00 Level of theory: PBE      |                
   | Atomic Solver: Koelling-Harmon                           |                
   |                                                          |                
   |               Reference Electronic Structure             |                
   |         Orbital         Occupation         Energy        |                
   |            3s              2.000           -0.634        |                
   |            3p              4.000           -0.258        |                
   |                                                          |                
   |                 Pseudopotential Definition               |                
   |        Beta     l      e      Rc     scheme   norm       |                
   |          1      0   -0.634   1.796     qc      1         |                
   |          2      2    0.000   1.796     qc      1         |                
   |         loc     1   -0.258   1.796     qc      1         |                
   |                                                          |                
   | No charge augmentation                                   |                
   | Partial core correction Rc = 1.255                       |                
   ------------------------------------------------------------                
   | "1|1.8|6|7|8|30N:31L:32N"                                |                
   ------------------------------------------------------------                
   |      Author: Chris J. Pickard, Cambridge University      |                
   ============================================================                

 Pseudo atomic calculation performed for O 2s2 2p4

 Converged in 43 iterations to a total energy of -425.2271 eV

 Pseudo atomic calculation performed for Na 2s2 2p6 3s1

 Converged in 31 iterations to a total energy of -1224.2987 eV

 Pseudo atomic calculation performed for S 3s2 3p4

 Converged in 34 iterations to a total energy of -299.9652 eV
Initialising basis set.

Standard grid dimensions:  40  45  48
Fine grid dimensions:      60  64  72

 BASIS_DISTRIBUTE REPORT
 stnd grid dims =           40          45          48
 fine grid dims =           60          64          72
 max stnd cols  =          270         240         225
 max fine cols  =          768         720         480

 
 G-vector Distribution Summary
 -----------------------------
 
 Distribution method: process_grid
 
 Load-balance method:                   Karmarkar-Karp
 
 G-vector group:   1
 -------------------
 X-columns:  PG: [4,2]
 Proc   # Stnd  # Fine  # Stnd Wgt  # Fine Wgt  Sum Stnd Wgt  Sum Fine Wgt
 1      270     768     49          49          58393         58393       
 2      270     768     52          52          58394         58394       
 3      270     768     50          50          58392         58392       
 4      270     768     50          50          58392         58392       
 5      270     384     58          58          58398         58398       
 6      270     384     52          52          58396         58396       
 7      270     384     56          56          58396         58396       
 8      270     384     54          54          58394         58394       
 -------------------------------------------------------------------------
 Total  2160    4608    421         421         467155        467155      
 Max    270     768     58          58          58398         58398       
 Delta  0       384     9           9           6             6           
 
 Y-columns:  PG: [4,2]
 Proc   # Stnd  # Fine  # Stnd Wgt  # Fine Wgt  Sum Stnd Wgt  Sum Fine Wgt
 1      240     720     110         165         110           165         
 2      240     720     110         165         110           165         
 3      240     720     110         165         110           165         
 4      240     720     110         165         110           165         
 5      240     360     140         210         140           210         
 6      240     360     140         210         140           210         
 7      240     360     140         210         140           210         
 8      240     360     140         210         140           210         
 -------------------------------------------------------------------------
 Total  1920    4320    1000        1500        1000          1500        
 Max    240     720     140         210         140           210         
 Delta  0       360     30          45          30            45          
 
 Z-columns:  PG: [4,2]
 Proc   # Stnd  # Fine  # Stnd Wgt  # Fine Wgt  Sum Stnd Wgt  Sum Fine Wgt
 1      225     480     225         480         225           480         
 2      225     480     225         480         225           480         
 3      225     480     225         480         225           480         
 4      225     480     225         480         225           480         
 5      225     480     225         480         225           480         
 6      225     480     225         480         225           480         
 7      225     480     225         480         225           480         
 8      225     480     225         480         225           480         
 -------------------------------------------------------------------------
 Total  1800    3840    1800        3840        1800          3840        
 Max    225     480     225         480         225           480         
 Delta  0       0       0           0           0             0           

Plane wave load balancing: max 565 min 543 average 556
True cut-off energy of basis :  20.212
 Calculation parallelised over 8 processes.
 Data is distributed by G-vector(8-way)

 ************************************ Title ************************************
 

 ***************************** General Parameters ******************************
  
 output verbosity                               : verbose (2)
 write checkpoint data to                       : phonon.check
 type of calculation                            : Phonon followed by E-field
 stress calculation                             : on
 density difference calculation                 : off
 electron localisation func (ELF) calculation   : off
 Hirshfeld analysis                             : off
 polarisation (Berry phase) analysis            : off
 molecular orbital projected DOS                : off
 deltaSCF calculation                           : off
 unlimited duration calculation
 timing information                             : on
 memory usage estimate                          : on
 write extra output files                       : on
 write final potential to formatted file        : off
 write final density to formatted file          : off
 write BibTeX reference list                    : on
 write OTFG pseudopotential files               : on
 write electrostatic potential file             : on
 write bands file                               : on
 checkpoint writing                             : both castep_bin and check files
  
 output         length unit                     : A
 output           mass unit                     : amu
 output           time unit                     : ps
 output         charge unit                     : e
 output           spin unit                     : hbar/2
 output         energy unit                     : eV
 output          force unit                     : eV/A
 output       velocity unit                     : A/ps
 output       pressure unit                     : GPa
 output     inv_length unit                     : 1/A
 output      frequency unit                     : cm-1
 output force constant unit                     : eV/A**2
 output         volume unit                     : A**3
 output   IR intensity unit                     : (D/A)**2/amu
 output         dipole unit                     : D
 output         efield unit                     : eV/A/e
 output        entropy unit                     : J/mol/K
 output    efield chi2 unit                     : pm/V
  
 wavefunctions paging                           : none
 random number generator seed                   :   90657682
 data distribution                              : optimal for this architecture
 optimization strategy                          : maximize speed(+++)

 *********************** Exchange-Correlation Parameters ***********************
  
 using functional                               : Perdew Burke Ernzerhof
 relativistic treatment                         : Koelling-Harmon
 DFT+D: Semi-empirical dispersion correction    : off

 ************************* Pseudopotential Parameters **************************
  
 pseudopotential representation                 : reciprocal space
 <beta|phi> representation                      : reciprocal space
 spin-orbit coupling                            : off

 **************************** Basis Set Parameters *****************************
  
 plane wave basis set cut-off                   :   550.0000   eV
 size of standard grid                          :     2.0000
 size of   fine   grid                          :     3.0000
 size of   fine   gmax                          :    36.0447   1/A
 largest prime factor in FFT                    :          5
 finite basis set correction                    : none

 **************************** Electronic Parameters ****************************
  
 number of  electrons                           :  78.00    
 net charge of system                           :  0.000    
 treating system as non-spin-polarized
 number of bands                                :         39

 ********************* Electronic Minimization Parameters **********************
  
 Method: Treating system as non-metallic,
         and number of  SD  steps               :          1
         and number of  CG  steps               :          8
  
 total energy / atom convergence tol.           : 0.1000E-09   eV
 max force / atom convergence tol.              : ignored
 convergence tolerance window                   :          3   cycles
 max. number of SCF cycles                      :        200
 periodic dipole correction                     : NONE

 *********************** Population Analysis Parameters ************************
  
 Population analysis with cutoff                :  3.000       A
 Population analysis output                     : summary and pdos components

 ****************************** Phonon Parameters ******************************
  
 phonon calculation method                      : linear response
 phonon convergence tolerance                   : 0.1000E-04   eV/A**2
 max. number of phonon cycles                   :        400
 max. number of phonon CG steps                 :          0
 convergence tolerance window                   :          2   cycles
 DFPT solver method                             : AllBands (Gonze variational method)
 preconditioning scheme                         : TPA     
 fine phonon calculation method                 : none
 LO/TO splitting term                           : included
 acoustic phonon sum rule                       : correct D(q) in recip-space
 Born effective charges                         : calculated
 Born charge sum rule                           : explicitly enforced
 Raman intensities                              : not calculated
 phonon k-points                                : use reduced set
 phonon DOS                                     : not calculated
 no timed backups

 ***************************** E-Field Parameters ******************************
  
 E-field convergence tolerance                  : 0.1000E-04   A**3
 DFPT solver method                             : AllBands (Gonze variational method)
 ionic contribution to permittivity             : included
 treating system as a crystal, 
 => ignoring 3 lowest modes when calculating ionic  contribution to permittivity
 calculation with frequency spacing             : 0.4556E-05   cm-1
 Q-factor for lineshape broadening              :    50.0000
 calculate non-linear optical properties        : OFF
 max. number of E-field cycles                  :        400
 max. number of E-field CG steps                :          0
 convergence tolerance window                   :          2   cycles
 band convergence tolerance                     : 0.1000E-08   eV

 *******************************************************************************
  

                           -------------------------------
                                      Unit Cell
                           -------------------------------
        Real Lattice(A)                      Reciprocal Lattice(1/A)
     4.7800000     0.0000000     0.0000000        1.314473911   0.171140291   0.364413442
    -0.7197723     5.5283409     0.0000000        0.000000000   1.136540859   0.286034935
    -1.4050606    -1.4464823     5.7475016        0.000000000   0.000000000   1.093202877

                       Lattice parameters(A)       Cell Angles
                    a =      4.780000          alpha =  101.871000
                    b =      5.575000          beta  =  103.337000
                    c =      6.091000          gamma =   97.418000

                       Current cell volume =           151.880429       A**3
                                   density =             1.567725   AMU/A**3
                                           =             2.603269     g/cm^3

                           -------------------------------
                                     Cell Contents
                           -------------------------------
                         Total number of ions in cell =   12
                      Total number of species in cell =    3
                        Max number of any one species =    8

            xxxxxxxxxxxxxxxxxxxxxxxxxxxxxxxxxxxxxxxxxxxxxxxxxxxxxxxxxxxx
            x  Element    Atom        Fractional coordinates of atoms  x
            x            Number           u          v          w      x
            x----------------------------------------------------------x
            x  O            1         0.589613   0.039182   0.416466   x 
            x  O            2         0.410387   0.960818   0.583534   x 
            x  O            3         0.781275   0.890785   0.107483   x 
            x  O            4         0.218725   0.109215   0.892517   x 
            x  O            5         0.315739   0.650225   0.122047   x 
            x  O            6         0.684261   0.349775   0.877953   x 
            x  O            7         0.772478   0.634495   0.393094   x 
            x  O            8         0.227522   0.365505   0.606906   x 
            x  Na           1         0.034165   0.314074   0.208140   x 
            x  Na           2         0.965835   0.685926   0.791860   x 
            x  S            1         0.614679   0.776770   0.245829   x 
            x  S            2         0.385321   0.223230   0.754171   x 
            xxxxxxxxxxxxxxxxxxxxxxxxxxxxxxxxxxxxxxxxxxxxxxxxxxxxxxxxxxxx


                         No user defined ionic velocities

                           -------------------------------
                                   Details of Species
                           -------------------------------

                               Mass of species in AMU
                                    O   15.9994000
                                    Na   22.9897700
                                    S   32.0660000

                          Electric Quadrupole Moment (Barn)
                                    O   -0.0255800 Isotope 17
                                    Na    0.1040000 Isotope 23
                                    S   -0.0678000 Isotope 33

                          Files used for pseudopotentials:
                                    O 2|1.2|23|26|31|20NN:21NN(qc=9)
                                    Na 2|1.5|20|23|26|20N:30N:21N(qc=8)
                                    S 1|1.8|6|7|8|30N:31L:32N

                           -------------------------------
                              k-Points For BZ Sampling
                           -------------------------------
                       MP grid size for SCF calculation is  7  6  5
                            with an offset of   0.000  0.000  0.000
                       Number of kpoints used =           105

             +++++++++++++++++++++++++++++++++++++++++++++++++++++++
             +  Number       Fractional coordinates        Weight  +
             +-----------------------------------------------------+
             +     1  -0.428571  -0.416667  -0.400000   0.0095238  +
             +     2  -0.428571  -0.416667  -0.200000   0.0095238  +
             +     3  -0.428571  -0.416667   0.200000   0.0095238  +
             +     4  -0.428571  -0.250000  -0.400000   0.0095238  +
             +     5  -0.428571  -0.250000  -0.200000   0.0095238  +
             +     6  -0.428571  -0.250000   0.000000   0.0095238  +
             +     7  -0.428571   0.083333  -0.400000   0.0095238  +
             +     8  -0.428571   0.083333  -0.200000   0.0095238  +
             +     9  -0.428571   0.083333   0.000000   0.0095238  +
             +    10  -0.428571   0.083333   0.200000   0.0095238  +
             +    11  -0.428571   0.250000  -0.400000   0.0095238  +
             +    12  -0.428571   0.250000   0.200000   0.0095238  +
             +    13  -0.428571   0.416667  -0.400000   0.0095238  +
             +    14  -0.428571   0.416667  -0.200000   0.0095238  +
             +    15  -0.428571   0.416667   0.200000   0.0095238  +
             +    16  -0.285714  -0.416667  -0.400000   0.0095238  +
             +    17  -0.285714  -0.416667  -0.200000   0.0095238  +
             +    18  -0.285714  -0.416667   0.000000   0.0095238  +
             +    19  -0.285714  -0.416667   0.200000   0.0095238  +
             +    20  -0.285714  -0.416667   0.400000   0.0095238  +
             +    21  -0.285714  -0.250000  -0.400000   0.0095238  +
             +    22  -0.285714  -0.250000   0.000000   0.0095238  +
             +    23  -0.285714  -0.250000   0.200000   0.0095238  +
             +    24  -0.285714  -0.250000   0.400000   0.0095238  +
             +    25  -0.285714  -0.083333  -0.200000   0.0095238  +
             +    26  -0.285714   0.083333  -0.400000   0.0095238  +
             +    27  -0.285714   0.250000  -0.400000   0.0095238  +
             +    28  -0.285714   0.416667  -0.400000   0.0095238  +
             +    29  -0.285714   0.416667  -0.200000   0.0095238  +
             +    30  -0.285714   0.416667   0.400000   0.0095238  +
             +    31  -0.142857  -0.416667   0.200000   0.0095238  +
             +    32  -0.142857  -0.416667   0.400000   0.0095238  +
             +    33  -0.142857  -0.250000  -0.400000   0.0095238  +
             +    34  -0.142857  -0.250000  -0.200000   0.0095238  +
             +    35  -0.142857  -0.250000   0.000000   0.0095238  +
             +    36  -0.142857  -0.250000   0.200000   0.0095238  +
             +    37  -0.142857  -0.250000   0.400000   0.0095238  +
             +    38  -0.142857   0.250000   0.200000   0.0095238  +
             +    39  -0.142857   0.250000   0.400000   0.0095238  +
             +    40  -0.142857   0.416667  -0.400000   0.0095238  +
             +    41  -0.142857   0.416667  -0.200000   0.0095238  +
             +    42  -0.142857   0.416667   0.000000   0.0095238  +
             +    43  -0.142857   0.416667   0.200000   0.0095238  +
             +    44   0.000000  -0.416667  -0.400000   0.0095238  +
             +    45   0.000000  -0.416667  -0.200000   0.0095238  +
             +    46   0.000000  -0.416667   0.000000   0.0095238  +
             +    47   0.000000  -0.416667   0.200000   0.0095238  +
             +    48   0.000000  -0.416667   0.400000   0.0095238  +
             +    49   0.000000  -0.250000  -0.400000   0.0095238  +
             +    50   0.000000  -0.250000  -0.200000   0.0095238  +
             +    51   0.000000  -0.250000   0.000000   0.0095238  +
             +    52   0.000000  -0.250000   0.200000   0.0095238  +
             +    53   0.000000  -0.250000   0.400000   0.0095238  +
             +    54   0.000000  -0.083333  -0.400000   0.0095238  +
             +    55   0.000000  -0.083333  -0.200000   0.0095238  +
             +    56   0.000000  -0.083333   0.000000   0.0095238  +
             +    57   0.000000  -0.083333   0.200000   0.0095238  +
             +    58   0.000000  -0.083333   0.400000   0.0095238  +
             +    59   0.142857  -0.416667  -0.400000   0.0095238  +
             +    60   0.142857  -0.250000   0.000000   0.0095238  +
             +    61   0.142857  -0.250000   0.200000   0.0095238  +
             +    62   0.142857  -0.250000   0.400000   0.0095238  +
             +    63   0.142857  -0.083333  -0.400000   0.0095238  +
             +    64   0.142857  -0.083333  -0.200000   0.0095238  +
             +    65   0.142857  -0.083333   0.000000   0.0095238  +
             +    66   0.142857  -0.083333   0.200000   0.0095238  +
             +    67   0.142857  -0.083333   0.400000   0.0095238  +
             +    68   0.142857   0.083333  -0.400000   0.0095238  +
             +    69   0.142857   0.083333  -0.200000   0.0095238  +
             +    70   0.142857   0.083333   0.000000   0.0095238  +
             +    71   0.142857   0.083333   0.200000   0.0095238  +
             +    72   0.142857   0.083333   0.400000   0.0095238  +
             +    73   0.142857   0.416667   0.000000   0.0095238  +
             +    74   0.142857   0.416667   0.200000   0.0095238  +
             +    75   0.142857   0.416667   0.400000   0.0095238  +
             +    76   0.285714  -0.416667  -0.200000   0.0095238  +
             +    77   0.285714  -0.416667   0.000000   0.0095238  +
             +    78   0.285714  -0.250000  -0.400000   0.0095238  +
             +    79   0.285714  -0.250000  -0.200000   0.0095238  +
             +    80   0.285714  -0.250000   0.000000   0.0095238  +
             +    81   0.285714  -0.250000   0.200000   0.0095238  +
             +    82   0.285714  -0.083333  -0.400000   0.0095238  +
             +    83   0.285714  -0.083333  -0.200000   0.0095238  +
             +    84   0.285714  -0.083333   0.000000   0.0095238  +
             +    85   0.285714  -0.083333   0.200000   0.0095238  +
             +    86   0.285714   0.083333  -0.400000   0.0095238  +
             +    87   0.285714   0.083333  -0.200000   0.0095238  +
             +    88   0.285714   0.083333   0.000000   0.0095238  +
             +    89   0.285714   0.083333   0.400000   0.0095238  +
             +    90   0.285714   0.250000   0.200000   0.0095238  +
             +    91   0.428571  -0.416667  -0.400000   0.0095238  +
             +    92   0.428571  -0.416667   0.000000   0.0095238  +
             +    93   0.428571  -0.250000  -0.400000   0.0095238  +
             +    94   0.428571  -0.250000   0.000000   0.0095238  +
             +    95   0.428571  -0.250000   0.200000   0.0095238  +
             +    96   0.428571  -0.083333  -0.400000   0.0095238  +
             +    97   0.428571   0.083333  -0.400000   0.0095238  +
             +    98   0.428571   0.083333  -0.200000   0.0095238  +
             +    99   0.428571   0.083333   0.000000   0.0095238  +
             +   100   0.428571   0.083333   0.200000   0.0095238  +
             +   101   0.428571   0.083333   0.400000   0.0095238  +
             +   102   0.428571   0.250000  -0.400000   0.0095238  +
             +   103   0.428571   0.250000  -0.200000   0.0095238  +
             +   104   0.428571   0.416667  -0.400000   0.0095238  +
             +   105   0.428571   0.416667   0.000000   0.0095238  +
             +++++++++++++++++++++++++++++++++++++++++++++++++++++++

                           -------------------------------
                               Symmetry and Constraints
                           -------------------------------

                      Maximum deviation from symmetry = 0.984540E-15     ANG

                      Number of symmetry operations   =           2
                      Number of ionic constraints     =           3
                      Point group of crystal =     2: Ci, -1, -1
                      Space group of crystal =     2: P-1, -P 1

                    1 rotation    
                 (   1.00000000000   0.00000000000   0.00000000000 )
                 (   0.00000000000   1.00000000000   0.00000000000 )
                 (  -0.00000000000  -0.00000000000   1.00000000000 )
                    1 displacement
                 (   0.00000000000   0.00000000000   0.00000000000 )
                      symmetry related atoms: 
             O:    1    2    3    4    5    6    7    8
             Na:    1    2
             S:    1    2

                    2 rotation    
                 (  -1.00000000000   0.00000000000   0.00000000000 )
                 (   0.00000000000  -1.00000000000   0.00000000000 )
                 (   0.00000000000   0.00000000000  -1.00000000000 )
                    2 displacement
                 (   0.00000000000   0.00000000000   0.00000000000 )
                      symmetry related atoms: 
             O:    2    1    4    3    6    5    8    7
             Na:    2    1
             S:    2    1


                         Centre of mass is constrained

            xxxxxxxxxxxxxxxxxxxxxxxxxxxxxxxxxxxxxxxxxxxxxxxxxxxxxxxxxxxxxx....
            x  Species       atom   co-ordinate  constraints.....         
            x-------------------------------------------------------------....
            x O                 1       x        29165.1221      0.0000      0.0000
            x O                 1       y            0.0000  29165.1221      0.0000
            x O                 1       z            0.0000      0.0000  29165.1221
            x O                 2       x        29165.1221      0.0000      0.0000
            x O                 2       y            0.0000  29165.1221      0.0000
            x O                 2       z            0.0000      0.0000  29165.1221
            x O                 3       x        29165.1221      0.0000      0.0000
            x O                 3       y            0.0000  29165.1221      0.0000
            x O                 3       z            0.0000      0.0000  29165.1221
            x O                 4       x        29165.1221      0.0000      0.0000
            x O                 4       y            0.0000  29165.1221      0.0000
            x O                 4       z            0.0000      0.0000  29165.1221
            x O                 5       x        29165.1221      0.0000      0.0000
            x O                 5       y            0.0000  29165.1221      0.0000
            x O                 5       z            0.0000      0.0000  29165.1221
            x O                 6       x        29165.1221      0.0000      0.0000
            x O                 6       y            0.0000  29165.1221      0.0000
            x O                 6       z            0.0000      0.0000  29165.1221
            x O                 7       x        29165.1221      0.0000      0.0000
            x O                 7       y            0.0000  29165.1221      0.0000
            x O                 7       z            0.0000      0.0000  29165.1221
            x O                 8       x        29165.1221      0.0000      0.0000
            x O                 8       y            0.0000  29165.1221      0.0000
            x O                 8       z            0.0000      0.0000  29165.1221
            x Na                1       x        41907.7870      0.0000      0.0000
            x Na                1       y            0.0000  41907.7870      0.0000
            x Na                1       z            0.0000      0.0000  41907.7870
            x Na                2       x        41907.7870      0.0000      0.0000
            x Na                2       y            0.0000  41907.7870      0.0000
            x Na                2       z            0.0000      0.0000  41907.7870
            x S                 1       x        58452.7422      0.0000      0.0000
            x S                 1       y            0.0000  58452.7422      0.0000
            x S                 1       z            0.0000      0.0000  58452.7422
            x S                 2       x        58452.7422      0.0000      0.0000
            x S                 2       y            0.0000  58452.7422      0.0000
            x S                 2       z            0.0000      0.0000  58452.7422
            xxxxxxxxxxxxxxxxxxxxxxxxxxxxxxxxxxxxxxxxxxxxxxxxxxxxxxxxxxxxxx....

                         Number of cell constraints= 6
                         Cell constraints are:  0 0 0 0 0 0

                         External pressure/stress (GPa)
                          0.00000   0.00000   0.00000
                                    0.00000   0.00000
                                              0.00000
 
+---------------- MEMORY AND SCRATCH DISK ESTIMATES PER PROCESS --------------+
|                                                     Memory          Disk    |
| Baseline code, static data and system overhead      430.0 MB         0.0 MB |
| BLAS internal memory storage                          0.0 MB         0.0 MB |
| Model and support data                              101.0 MB         0.0 MB |
| Electronic energy minimisation requirements         192.9 MB         0.0 MB |
| Force calculation requirements                        7.2 MB         0.0 MB |
| Stress calculation requirements                       7.9 MB         0.0 MB |
|                                               ----------------------------- |
| Approx. total storage required per process          723.9 MB         0.0 MB |
|                                                                             |
| Requirements will fluctuate during execution and may exceed these estimates |
+-----------------------------------------------------------------------------+
Calculating approximate eigenstates for fixed initial Hamiltonian
Cut-off for approx. calculation is  413.493 eV
Initialising basis set.

Standard grid dimensions:  32  40  45
Fine grid dimensions:      60  64  72

 BASIS_DISTRIBUTE REPORT
 stnd grid dims =           32          40          45
 fine grid dims =           60          64          72
 max stnd cols  =          231         184         160
 max fine cols  =          784         735         480

 
 G-vector Distribution Summary
 -----------------------------
 
 Distribution method: process_grid
 
 Load-balance method:                   Karmarkar-Karp
 
 G-vector group:   1
 -------------------
 X-columns:  PG: [4,2]
 Proc   # Stnd  # Fine  # Stnd Wgt  # Fine Wgt  Sum Stnd Wgt  Sum Fine Wgt
 1      231     368     39          39          38042         38042       
 2      231     368     42          42          38044         38044       
 3      229     368     40          40          38044         38044       
 4      229     368     40          40          38044         38044       
 5      221     784     38          38          38094         38094       
 6      221     784     42          42          38094         38094       
 7      219     784     38          38          38092         38092       
 8      219     784     40          40          38088         38088       
 -------------------------------------------------------------------------
 Total  1800    4608    319         319         304542        304542      
 Max    231     784     42          42          38094         38094       
 Delta  12      416     4           4           52            52          
 
 Y-columns:  PG: [4,2]
 Proc   # Stnd  # Fine  # Stnd Wgt  # Fine Wgt  Sum Stnd Wgt  Sum Fine Wgt
 1      184     345     88          165         88            165         
 2      184     345     88          165         88            165         
 3      184     345     88          165         88            165         
 4      184     345     88          165         88            165         
 5      176     735     80          150         80            150         
 6      176     735     80          150         80            150         
 7      176     735     80          150         80            150         
 8      176     735     80          150         80            150         
 -------------------------------------------------------------------------
 Total  1440    4320    672         1260        672           1260        
 Max    184     735     88          165         88            165         
 Delta  8       390     8           15          8             15          
 
 Z-columns:  PG: [4,2]
 Proc   # Stnd  # Fine  # Stnd Wgt  # Fine Wgt  Sum Stnd Wgt  Sum Fine Wgt
 1      160     480     160         480         160           480         
 2      160     480     160         480         160           480         
 3      160     480     160         480         160           480         
 4      160     480     160         480         160           480         
 5      160     480     160         480         160           480         
 6      160     480     160         480         160           480         
 7      160     480     160         480         160           480         
 8      160     480     160         480         160           480         
 -------------------------------------------------------------------------
 Total  1280    3840    1280        3840        1280          3840        
 Max    160     480     160         480         160           480         
 Delta  0       0       0           0           0             0           

Plane wave load balancing: max 371 min 353 average 362
True cut-off energy of basis :  15.196
Refining calculation on full k-point grid
Resetting cut-off to  550.000 eV
Initialising basis set.

Standard grid dimensions:  40  45  48
Fine grid dimensions:      60  64  72

 BASIS_DISTRIBUTE REPORT
 stnd grid dims =           40          45          48
 fine grid dims =           60          64          72
 max stnd cols  =          270         240         225
 max fine cols  =          768         720         480

 
 G-vector Distribution Summary
 -----------------------------
 
 Distribution method: process_grid
 
 Load-balance method:                   Karmarkar-Karp
 
 G-vector group:   1
 -------------------
 X-columns:  PG: [4,2]
 Proc   # Stnd  # Fine  # Stnd Wgt  # Fine Wgt  Sum Stnd Wgt  Sum Fine Wgt
 1      270     768     49          49          58393         58393       
 2      270     768     52          52          58394         58394       
 3      270     768     50          50          58392         58392       
 4      270     768     50          50          58392         58392       
 5      270     384     58          58          58398         58398       
 6      270     384     52          52          58396         58396       
 7      270     384     56          56          58396         58396       
 8      270     384     54          54          58394         58394       
 -------------------------------------------------------------------------
 Total  2160    4608    421         421         467155        467155      
 Max    270     768     58          58          58398         58398       
 Delta  0       384     9           9           6             6           
 
 Y-columns:  PG: [4,2]
 Proc   # Stnd  # Fine  # Stnd Wgt  # Fine Wgt  Sum Stnd Wgt  Sum Fine Wgt
 1      240     720     110         165         110           165         
 2      240     720     110         165         110           165         
 3      240     720     110         165         110           165         
 4      240     720     110         165         110           165         
 5      240     360     140         210         140           210         
 6      240     360     140         210         140           210         
 7      240     360     140         210         140           210         
 8      240     360     140         210         140           210         
 -------------------------------------------------------------------------
 Total  1920    4320    1000        1500        1000          1500        
 Max    240     720     140         210         140           210         
 Delta  0       360     30          45          30            45          
 
 Z-columns:  PG: [4,2]
 Proc   # Stnd  # Fine  # Stnd Wgt  # Fine Wgt  Sum Stnd Wgt  Sum Fine Wgt
 1      225     480     225         480         225           480         
 2      225     480     225         480         225           480         
 3      225     480     225         480         225           480         
 4      225     480     225         480         225           480         
 5      225     480     225         480         225           480         
 6      225     480     225         480         225           480         
 7      225     480     225         480         225           480         
 8      225     480     225         480         225           480         
 -------------------------------------------------------------------------
 Total  1800    3840    1800        3840        1800          3840        
 Max    225     480     225         480         225           480         
 Delta  0       0       0           0           0             0           

Plane wave load balancing: max 565 min 543 average 556
True cut-off energy of basis :  20.212
Improving states further at cut-off of  550.000 eV
Calculating total energy with cut-off of  550.000 eV.
 
Init
Total energy                     =     -6507.00581090049308841 eV
------------------------------------------------------------------------ <-- SCF
SCF loop      Energy                           Energy gain       Timer   <-- SCF
                                               per atom          (sec)   <-- SCF
------------------------------------------------------------------------ <-- SCF
Initial  -6.50700581E+003                                         48.49  <-- SCF
+------------------- WAVEFUNCTION LINE MINIMISATION --------------------+<- line
| Initial energy = -6.507006E+003 eV; initial dE/dstep = -3.849E+001 eV |<- line
|                                                                       |<- line
|            1st step    2nd step    3rd step    4th step    5th step   |<- line
+--------+--------------------------------------------------------------+<- line
| step   |  1.500E+00   5.864E-01* unnecessary unnecessary unnecessary  |<- line
| gain   | -1.611E+01   1.141E+01* unnecessary unnecessary unnecessary  |<- line
+--------+--------------------------------------------------------------+<- line
 * indicates the final, accepted state (should have the lowest energy)          
 
+------------------- WAVEFUNCTION LINE MINIMISATION --------------------+<- line
| Initial energy = -6.518420E+003 eV; initial dE/dstep = -2.700E+000 eV |<- line
|                                                                       |<- line
|            1st step    2nd step    3rd step    4th step    5th step   |<- line
+--------+--------------------------------------------------------------+<- line
| step   |  1.500E+00   1.059E+00* unnecessary unnecessary unnecessary  |<- line
| gain   |  1.181E+00   1.431E+00* unnecessary unnecessary unnecessary  |<- line
+--------+--------------------------------------------------------------+<- line
 * indicates the final, accepted state (should have the lowest energy)          
 
+------------------- WAVEFUNCTION LINE MINIMISATION --------------------+<- line
| Initial energy = -6.519851E+003 eV; initial dE/dstep = -7.383E-001 eV |<- line
|                                                                       |<- line
|            1st step    2nd step    3rd step    4th step    5th step   |<- line
+--------+--------------------------------------------------------------+<- line
| step   |  1.500E+00   1.171E+00* unnecessary unnecessary unnecessary  |<- line
| gain   |  3.979E-01   4.324E-01* unnecessary unnecessary unnecessary  |<- line
+--------+--------------------------------------------------------------+<- line
 * indicates the final, accepted state (should have the lowest energy)          
 
+------------------- WAVEFUNCTION LINE MINIMISATION --------------------+<- line
| Initial energy = -6.520284E+003 eV; initial dE/dstep = -4.372E-001 eV |<- line
|                                                                       |<- line
|            1st step    2nd step    3rd step    4th step    5th step   |<- line
+--------+--------------------------------------------------------------+<- line
| step   |  1.500E+00   1.289E+00* unnecessary unnecessary unnecessary  |<- line
| gain   |  2.741E-01   2.819E-01* unnecessary unnecessary unnecessary  |<- line
+--------+--------------------------------------------------------------+<- line
 * indicates the final, accepted state (should have the lowest energy)          
 
+------------------- WAVEFUNCTION LINE MINIMISATION --------------------+<- line
| Initial energy = -6.520566E+003 eV; initial dE/dstep = -3.984E-001 eV |<- line
|                                                                       |<- line
|            1st step    2nd step    3rd step    4th step    5th step   |<- line
+--------+--------------------------------------------------------------+<- line
| step   |  1.500E+00   1.102E+00* unnecessary unnecessary unnecessary  |<- line
| gain   |  1.909E-01   2.199E-01* unnecessary unnecessary unnecessary  |<- line
+--------+--------------------------------------------------------------+<- line
 * indicates the final, accepted state (should have the lowest energy)          
 
+------------------- WAVEFUNCTION LINE MINIMISATION --------------------+<- line
| Initial energy = -6.520785E+003 eV; initial dE/dstep = -3.221E-001 eV |<- line
|                                                                       |<- line
|            1st step    2nd step    3rd step    4th step    5th step   |<- line
+--------+--------------------------------------------------------------+<- line
| step   |  1.500E+00   1.049E+00* unnecessary unnecessary unnecessary  |<- line
| gain   |  1.378E-01   1.692E-01* unnecessary unnecessary unnecessary  |<- line
+--------+--------------------------------------------------------------+<- line
 * indicates the final, accepted state (should have the lowest energy)          
 
+------------------- WAVEFUNCTION LINE MINIMISATION --------------------+<- line
| Initial energy = -6.520955E+003 eV; initial dE/dstep = -1.723E-001 eV |<- line
|                                                                       |<- line
|            1st step    2nd step    3rd step    4th step    5th step   |<- line
+--------+--------------------------------------------------------------+<- line
| step   |  1.500E+00   1.096E+00* unnecessary unnecessary unnecessary  |<- line
| gain   |  8.161E-02   9.449E-02* unnecessary unnecessary unnecessary  |<- line
+--------+--------------------------------------------------------------+<- line
 * indicates the final, accepted state (should have the lowest energy)          
 
+------------------- WAVEFUNCTION LINE MINIMISATION --------------------+<- line
| Initial energy = -6.521049E+003 eV; initial dE/dstep = -1.278E-001 eV |<- line
|                                                                       |<- line
|            1st step    2nd step    3rd step    4th step    5th step   |<- line
+--------+--------------------------------------------------------------+<- line
| step   |  1.500E+00   1.044E+00* unnecessary unnecessary unnecessary  |<- line
| gain   |  5.391E-02   6.672E-02* unnecessary unnecessary unnecessary  |<- line
+--------+--------------------------------------------------------------+<- line
 * indicates the final, accepted state (should have the lowest energy)          
 
+------------------- WAVEFUNCTION LINE MINIMISATION --------------------+<- line
| Initial energy = -6.521116E+003 eV; initial dE/dstep = -8.827E-002 eV |<- line
|                                                                       |<- line
|            1st step    2nd step    3rd step    4th step    5th step   |<- line
+--------+--------------------------------------------------------------+<- line
| step   |  1.500E+00   1.094E+00* unnecessary unnecessary unnecessary  |<- line
| gain   |  4.161E-02   4.831E-02* unnecessary unnecessary unnecessary  |<- line
+--------+--------------------------------------------------------------+<- line
 * indicates the final, accepted state (should have the lowest energy)          
 
      1  -6.52116419E+003                    1.17986522E+000     100.68  <-- SCF
+------------------- WAVEFUNCTION LINE MINIMISATION --------------------+<- line
| Initial energy = -6.521164E+003 eV; initial dE/dstep = -5.307E-002 eV |<- line
|                                                                       |<- line
|            1st step    2nd step    3rd step    4th step    5th step   |<- line
+--------+--------------------------------------------------------------+<- line
| step   |  1.500E+00   7.466E-01* unnecessary unnecessary unnecessary  |<- line
| gain   | -3.645E-04   1.981E-02* unnecessary unnecessary unnecessary  |<- line
+--------+--------------------------------------------------------------+<- line
 * indicates the final, accepted state (should have the lowest energy)          
 
+------------------- WAVEFUNCTION LINE MINIMISATION --------------------+<- line
| Initial energy = -6.521184E+003 eV; initial dE/dstep = -2.973E-002 eV |<- line
|                                                                       |<- line
|            1st step    2nd step    3rd step    4th step    5th step   |<- line
+--------+--------------------------------------------------------------+<- line
| step   |  1.500E+00   1.154E+00* unnecessary unnecessary unnecessary  |<- line
| gain   |  1.562E-02   1.716E-02* unnecessary unnecessary unnecessary  |<- line
+--------+--------------------------------------------------------------+<- line
 * indicates the final, accepted state (should have the lowest energy)          
 
+------------------- WAVEFUNCTION LINE MINIMISATION --------------------+<- line
| Initial energy = -6.521201E+003 eV; initial dE/dstep = -2.296E-002 eV |<- line
|                                                                       |<- line
|            1st step    2nd step    3rd step    4th step    5th step   |<- line
+--------+--------------------------------------------------------------+<- line
| step   |  1.500E+00   1.119E+00* unnecessary unnecessary unnecessary  |<- line
| gain   |  1.136E-02   1.285E-02* unnecessary unnecessary unnecessary  |<- line
+--------+--------------------------------------------------------------+<- line
 * indicates the final, accepted state (should have the lowest energy)          
 
+------------------- WAVEFUNCTION LINE MINIMISATION --------------------+<- line
| Initial energy = -6.521214E+003 eV; initial dE/dstep = -1.617E-002 eV |<- line
|                                                                       |<- line
|            1st step    2nd step    3rd step    4th step    5th step   |<- line
+--------+--------------------------------------------------------------+<- line
| step   |  1.500E+00   1.214E+00* unnecessary unnecessary unnecessary  |<- line
| gain   |  9.269E-03   9.817E-03* unnecessary unnecessary unnecessary  |<- line
+--------+--------------------------------------------------------------+<- line
 * indicates the final, accepted state (should have the lowest energy)          
 
+------------------- WAVEFUNCTION LINE MINIMISATION --------------------+<- line
| Initial energy = -6.521224E+003 eV; initial dE/dstep = -1.259E-002 eV |<- line
|                                                                       |<- line
|            1st step    2nd step    3rd step    4th step    5th step   |<- line
+--------+--------------------------------------------------------------+<- line
| step   |  1.500E+00   1.026E+00* unnecessary unnecessary unnecessary  |<- line
| gain   |  5.079E-03   6.462E-03* unnecessary unnecessary unnecessary  |<- line
+--------+--------------------------------------------------------------+<- line
 * indicates the final, accepted state (should have the lowest energy)          
 
+------------------- WAVEFUNCTION LINE MINIMISATION --------------------+<- line
| Initial energy = -6.521230E+003 eV; initial dE/dstep = -7.693E-003 eV |<- line
|                                                                       |<- line
|            1st step    2nd step    3rd step    4th step    5th step   |<- line
+--------+--------------------------------------------------------------+<- line
| step   |  1.500E+00   1.072E+00* unnecessary unnecessary unnecessary  |<- line
| gain   |  3.464E-03   4.124E-03* unnecessary unnecessary unnecessary  |<- line
+--------+--------------------------------------------------------------+<- line
 * indicates the final, accepted state (should have the lowest energy)          
 
+------------------- WAVEFUNCTION LINE MINIMISATION --------------------+<- line
| Initial energy = -6.521234E+003 eV; initial dE/dstep = -4.768E-003 eV |<- line
|                                                                       |<- line
|            1st step    2nd step    3rd step    4th step    5th step   |<- line
+--------+--------------------------------------------------------------+<- line
| step   |  1.500E+00   1.209E+00* unnecessary unnecessary unnecessary  |<- line
| gain   |  2.714E-03   2.882E-03* unnecessary unnecessary unnecessary  |<- line
+--------+--------------------------------------------------------------+<- line
 * indicates the final, accepted state (should have the lowest energy)          
 
+------------------- WAVEFUNCTION LINE MINIMISATION --------------------+<- line
| Initial energy = -6.521237E+003 eV; initial dE/dstep = -3.395E-003 eV |<- line
|                                                                       |<- line
|            1st step    2nd step    3rd step    4th step    5th step   |<- line
+--------+--------------------------------------------------------------+<- line
| step   |  1.500E+00   1.258E+00* unnecessary unnecessary unnecessary  |<- line
| gain   |  2.056E-03   2.135E-03* unnecessary unnecessary unnecessary  |<- line
+--------+--------------------------------------------------------------+<- line
 * indicates the final, accepted state (should have the lowest energy)          
 
+------------------- WAVEFUNCTION LINE MINIMISATION --------------------+<- line
| Initial energy = -6.521239E+003 eV; initial dE/dstep = -2.799E-003 eV |<- line
|                                                                       |<- line
|            1st step    2nd step    3rd step    4th step    5th step   |<- line
+--------+--------------------------------------------------------------+<- line
| step   |  1.500E+00   1.011E+00* unnecessary unnecessary unnecessary  |<- line
| gain   |  1.085E-03   1.415E-03* unnecessary unnecessary unnecessary  |<- line
+--------+--------------------------------------------------------------+<- line
 * indicates the final, accepted state (should have the lowest energy)          
 
      2  -6.52124085E+003                    6.38819226E-003     153.35  <-- SCF
+------------------- WAVEFUNCTION LINE MINIMISATION --------------------+<- line
| Initial energy = -6.521241E+003 eV; initial dE/dstep = -1.730E-003 eV |<- line
|                                                                       |<- line
|            1st step    2nd step    3rd step    4th step    5th step   |<- line
+--------+--------------------------------------------------------------+<- line
| step   |  1.500E+00   6.349E-01* unnecessary unnecessary unnecessary  |<- line
| gain   | -4.704E-04   5.492E-04* unnecessary unnecessary unnecessary  |<- line
+--------+--------------------------------------------------------------+<- line
 * indicates the final, accepted state (should have the lowest energy)          
 
+------------------- WAVEFUNCTION LINE MINIMISATION --------------------+<- line
| Initial energy = -6.521241E+003 eV; initial dE/dstep = -7.248E-004 eV |<- line
|                                                                       |<- line
|            1st step    2nd step    3rd step    4th step    5th step   |<- line
+--------+--------------------------------------------------------------+<- line
| step   |  1.500E+00   9.737E-01* unnecessary unnecessary unnecessary  |<- line
| gain   |  2.498E-04   3.529E-04* unnecessary unnecessary unnecessary  |<- line
+--------+--------------------------------------------------------------+<- line
 * indicates the final, accepted state (should have the lowest energy)          
 
+------------------- WAVEFUNCTION LINE MINIMISATION --------------------+<- line
| Initial energy = -6.521242E+003 eV; initial dE/dstep = -3.544E-004 eV |<- line
|                                                                       |<- line
|            1st step    2nd step    3rd step    4th step    5th step   |<- line
+--------+--------------------------------------------------------------+<- line
| step   |  1.500E+00   1.131E+00* unnecessary unnecessary unnecessary  |<- line
| gain   |  1.792E-04   2.005E-04* unnecessary unnecessary unnecessary  |<- line
+--------+--------------------------------------------------------------+<- line
 * indicates the final, accepted state (should have the lowest energy)          
 
+------------------- WAVEFUNCTION LINE MINIMISATION --------------------+<- line
| Initial energy = -6.521242E+003 eV; initial dE/dstep = -2.443E-004 eV |<- line
|                                                                       |<- line
|            1st step    2nd step    3rd step    4th step    5th step   |<- line
+--------+--------------------------------------------------------------+<- line
| step   |  1.500E+00   1.085E+00* unnecessary unnecessary unnecessary  |<- line
| gain   |  1.132E-04   1.326E-04* unnecessary unnecessary unnecessary  |<- line
+--------+--------------------------------------------------------------+<- line
 * indicates the final, accepted state (should have the lowest energy)          
 
+------------------- WAVEFUNCTION LINE MINIMISATION --------------------+<- line
| Initial energy = -6.521242E+003 eV; initial dE/dstep = -1.597E-004 eV |<- line
|                                                                       |<- line
|            1st step    2nd step    3rd step    4th step    5th step   |<- line
+--------+--------------------------------------------------------------+<- line
| step   |  1.500E+00   1.099E+00* unnecessary unnecessary unnecessary  |<- line
| gain   |  7.607E-05   8.774E-05* unnecessary unnecessary unnecessary  |<- line
+--------+--------------------------------------------------------------+<- line
 * indicates the final, accepted state (should have the lowest energy)          
 
+------------------- WAVEFUNCTION LINE MINIMISATION --------------------+<- line
| Initial energy = -6.521242E+003 eV; initial dE/dstep = -1.086E-004 eV |<- line
|                                                                       |<- line
|            1st step    2nd step    3rd step    4th step    5th step   |<- line
+--------+--------------------------------------------------------------+<- line
| step   |  1.500E+00   1.051E+00* unnecessary unnecessary unnecessary  |<- line
| gain   |  4.663E-05   5.705E-05* unnecessary unnecessary unnecessary  |<- line
+--------+--------------------------------------------------------------+<- line
 * indicates the final, accepted state (should have the lowest energy)          
 
+------------------- WAVEFUNCTION LINE MINIMISATION --------------------+<- line
| Initial energy = -6.521242E+003 eV; initial dE/dstep = -5.974E-005 eV |<- line
|                                                                       |<- line
|            1st step    2nd step    3rd step    4th step    5th step   |<- line
+--------+--------------------------------------------------------------+<- line
| step   |  1.500E+00   1.078E+00* unnecessary unnecessary unnecessary  |<- line
| gain   |  2.727E-05   3.221E-05* unnecessary unnecessary unnecessary  |<- line
+--------+--------------------------------------------------------------+<- line
 * indicates the final, accepted state (should have the lowest energy)          
 
+------------------- WAVEFUNCTION LINE MINIMISATION --------------------+<- line
| Initial energy = -6.521242E+003 eV; initial dE/dstep = -3.864E-005 eV |<- line
|                                                                       |<- line
|            1st step    2nd step    3rd step    4th step    5th step   |<- line
+--------+--------------------------------------------------------------+<- line
| step   |  1.500E+00   1.016E+00* unnecessary unnecessary unnecessary  |<- line
| gain   |  1.516E-05   1.962E-05* unnecessary unnecessary unnecessary  |<- line
+--------+--------------------------------------------------------------+<- line
 * indicates the final, accepted state (should have the lowest energy)          
 
+------------------- WAVEFUNCTION LINE MINIMISATION --------------------+<- line
| Initial energy = -6.521242E+003 eV; initial dE/dstep = -2.354E-005 eV |<- line
|                                                                       |<- line
|            1st step    2nd step    3rd step    4th step    5th step   |<- line
+--------+--------------------------------------------------------------+<- line
| step   |  1.500E+00   1.025E+00* unnecessary unnecessary unnecessary  |<- line
| gain   |  9.466E-06   1.206E-05* unnecessary unnecessary unnecessary  |<- line
+--------+--------------------------------------------------------------+<- line
 * indicates the final, accepted state (should have the lowest energy)          
 
      3  -6.52124230E+003                    1.20317508E-004     206.04  <-- SCF
+------------------- WAVEFUNCTION LINE MINIMISATION --------------------+<- line
| Initial energy = -6.521242E+003 eV; initial dE/dstep = -1.990E-005 eV |<- line
|                                                                       |<- line
|            1st step    2nd step    3rd step    4th step    5th step   |<- line
+--------+--------------------------------------------------------------+<- line
| step   |  1.500E+00   7.454E-01* unnecessary unnecessary unnecessary  |<- line
| gain   | -1.851E-07   7.416E-06* unnecessary unnecessary unnecessary  |<- line
+--------+--------------------------------------------------------------+<- line
 * indicates the final, accepted state (should have the lowest energy)          
 
+------------------- WAVEFUNCTION LINE MINIMISATION --------------------+<- line
| Initial energy = -6.521242E+003 eV; initial dE/dstep = -1.157E-005 eV |<- line
|                                                                       |<- line
|            1st step    2nd step    3rd step    4th step    5th step   |<- line
+--------+--------------------------------------------------------------+<- line
| step   |  1.500E+00   1.184E+00* unnecessary unnecessary unnecessary  |<- line
| gain   |  6.362E-06   6.850E-06* unnecessary unnecessary unnecessary  |<- line
+--------+--------------------------------------------------------------+<- line
 * indicates the final, accepted state (should have the lowest energy)          
 
+------------------- WAVEFUNCTION LINE MINIMISATION --------------------+<- line
| Initial energy = -6.521242E+003 eV; initial dE/dstep = -9.590E-006 eV |<- line
|                                                                       |<- line
|            1st step    2nd step    3rd step    4th step    5th step   |<- line
+--------+--------------------------------------------------------------+<- line
| step   |  1.500E+00   1.145E+00* unnecessary unnecessary unnecessary  |<- line
| gain   |  4.966E-06   5.492E-06* unnecessary unnecessary unnecessary  |<- line
+--------+--------------------------------------------------------------+<- line
 * indicates the final, accepted state (should have the lowest energy)          
 
+------------------- WAVEFUNCTION LINE MINIMISATION --------------------+<- line
| Initial energy = -6.521242E+003 eV; initial dE/dstep = -7.039E-006 eV |<- line
|                                                                       |<- line
|            1st step    2nd step    3rd step    4th step    5th step   |<- line
+--------+--------------------------------------------------------------+<- line
| step   |  1.500E+00   1.194E+00* unnecessary unnecessary unnecessary  |<- line
| gain   |  3.928E-06   4.204E-06* unnecessary unnecessary unnecessary  |<- line
+--------+--------------------------------------------------------------+<- line
 * indicates the final, accepted state (should have the lowest energy)          
 
+------------------- WAVEFUNCTION LINE MINIMISATION --------------------+<- line
| Initial energy = -6.521242E+003 eV; initial dE/dstep = -5.119E-006 eV |<- line
|                                                                       |<- line
|            1st step    2nd step    3rd step    4th step    5th step   |<- line
+--------+--------------------------------------------------------------+<- line
| step   |  1.500E+00   1.073E+00* unnecessary unnecessary unnecessary  |<- line
| gain   |  2.313E-06   2.747E-06* unnecessary unnecessary unnecessary  |<- line
+--------+--------------------------------------------------------------+<- line
 * indicates the final, accepted state (should have the lowest energy)          
 
+------------------- WAVEFUNCTION LINE MINIMISATION --------------------+<- line
| Initial energy = -6.521242E+003 eV; initial dE/dstep = -3.154E-006 eV |<- line
|                                                                       |<- line
|            1st step    2nd step    3rd step    4th step    5th step   |<- line
+--------+--------------------------------------------------------------+<- line
| step   |  1.500E+00   1.069E+00* unnecessary unnecessary unnecessary  |<- line
| gain   |  1.412E-06   1.686E-06* unnecessary unnecessary unnecessary  |<- line
+--------+--------------------------------------------------------------+<- line
 * indicates the final, accepted state (should have the lowest energy)          
 
+------------------- WAVEFUNCTION LINE MINIMISATION --------------------+<- line
| Initial energy = -6.521242E+003 eV; initial dE/dstep = -2.045E-006 eV |<- line
|                                                                       |<- line
|            1st step    2nd step    3rd step    4th step    5th step   |<- line
+--------+--------------------------------------------------------------+<- line
| step   |  1.500E+00   1.083E+00* unnecessary unnecessary unnecessary  |<- line
| gain   |  9.429E-07   1.107E-06* unnecessary unnecessary unnecessary  |<- line
+--------+--------------------------------------------------------------+<- line
 * indicates the final, accepted state (should have the lowest energy)          
 
+------------------- WAVEFUNCTION LINE MINIMISATION --------------------+<- line
| Initial energy = -6.521242E+003 eV; initial dE/dstep = -1.288E-006 eV |<- line
|                                                                       |<- line
|            1st step    2nd step    3rd step    4th step    5th step   |<- line
+--------+--------------------------------------------------------------+<- line
| step   |  1.500E+00   1.182E+00* unnecessary unnecessary unnecessary  |<- line
| gain   |  7.064E-07   7.613E-07* unnecessary unnecessary unnecessary  |<- line
+--------+--------------------------------------------------------------+<- line
 * indicates the final, accepted state (should have the lowest energy)          
 
+------------------- WAVEFUNCTION LINE MINIMISATION --------------------+<- line
| Initial energy = -6.521242E+003 eV; initial dE/dstep = -9.746E-007 eV |<- line
|                                                                       |<- line
|            1st step    2nd step    3rd step    4th step    5th step   |<- line
+--------+--------------------------------------------------------------+<- line
| step   |  1.500E+00   9.853E-01* unnecessary unnecessary unnecessary  |<- line
| gain   |  3.491E-07   4.801E-07* unnecessary unnecessary unnecessary  |<- line
+--------+--------------------------------------------------------------+<- line
 * indicates the final, accepted state (should have the lowest energy)          
 
      4  -6.52124233E+003                    2.56195655E-006     258.93  <-- SCF
+------------------- WAVEFUNCTION LINE MINIMISATION --------------------+<- line
| Initial energy = -6.521242E+003 eV; initial dE/dstep = -8.282E-007 eV |<- line
|                                                                       |<- line
|            1st step    2nd step    3rd step    4th step    5th step   |<- line
+--------+--------------------------------------------------------------+<- line
[...]
 + (Due to LO/TO splitting this character table may not contain some symmetry +
 +  operations of the full crystallographic point group.  Additional          +
 +  representations may be also be present corresponding to split LO modes.   +
 +  A conventional analysis can be generated by specifying an additional null +
 +  (all zero) field direction or one along any unique crystallographic axis  +
 +  in %BLOCK PHONON_GAMMA_DIRECTIONS in <seedname>.cell.)                    +
 + .......................................................................... +
 +  Rep  Mul |    E   I                                                       +
 +           | --------                                                       +
 + a Au   18 |    1  -1                                                       +
 + b Ag   18 |    1   1                                                       +
 ==============================================================================
Checkpointing calculation.
No previous checkpoint time recorded. Continue execution.

 ******************************* User Parameters *******************************
iprint                  : 2                # verbosity control (I)
calculatestress         : T                # stress on/off (L)
calculatedensdiff       : F                # calculate density difference based on atoms (L)
electronicminimizer     : CG               # electronic minimization method (S)
maxcgsteps              : 8                # max. number of conjugate gradient steps (I)
elecenergytol           : 0.0000000 ev     # total energy per atom convergence tolerance (P)
maxscfcycles            : 200              # maximum SCF cycles (I)
numdumpcycles           : 0                # frequency of wavefunction dumps (I)
popncalculate           : T                # population analysis on/off (L)
pdoscalculateweights    : F                # partial DOS analysis on/off (L)
geommaxiter             : 100              # maximum number of geometry optimization iterations (I)
geomenergytol           : 0.0000010 ev     # geometry optimization energy convergence tolerance (P)
geomforcetol            : 0.0010000 ev/ang # geometry optimization force convergence tolerance (P)
geomdisptol             : 0.0002000 ang    # geometry optimization displacement convergence tolerance (P)
geomstresstol           : 0.0010000 gpa    # geometry optimization stress convergence tolerance (P)
phononmaxcycles         : 400              # maximum cycles in LR (I)
phononcalclotosplitting : T                # gamma-point phonon LO/TO correction (L)
calculateborncharges    : T                # calculate Born effective charges (L)
bornchargesumrule       : T                # enforce Born charge sum rule (L)
efieldmaxcycles         : 400              # maximum cycles in EFIELD (I)

 *******************************************************************************
  

 ===============================================================================
        Optical Permittivity (f->infinity)             DC Permittivity (f=0)
        ----------------------------------             ---------------------
         2.60063    -0.06597    -0.30614         5.71376    -1.01315    -0.97797
        -0.06597     2.38460     0.11750        -1.01315     5.11571     0.29553
        -0.30614     0.11750     2.73661        -0.97797     0.29553     4.73429
 ===============================================================================

 ===============================================================================
                                    Polarisabilities (A**3)
                Optical (f->infinity)                       Static  (f=0)
                ---------------------                       -------------
        19.34568    -0.79730    -3.70010        56.97175   -12.24524   -11.82006
        -0.79730    16.73461     1.42019       -12.24524    49.74353     3.57187
        -3.70010     1.42019    20.98912       -11.82006     3.57187    45.13364
 ===============================================================================
 ===================================================
                   Born Effective Charges
                   ----------------------
   O       1       -0.40610     0.16188     0.06851
                    0.39665    -0.87652    -0.60462
                    0.15470    -0.31872    -0.63862
   O       2       -0.40610     0.16188     0.06851
                    0.39665    -0.87652    -0.60462
                    0.15470    -0.31872    -0.63862
   O       3       -1.28512    -0.28681     0.50174
                   -0.23118    -1.17969     0.09767
                    0.54321     0.17957    -1.35145
   O       4       -1.28512    -0.28681     0.50174
                   -0.23118    -1.17969     0.09767
                    0.54321     0.17957    -1.35145
   O       5       -1.34917    -0.37803    -0.60082
                   -0.14781    -1.04810    -0.42119
                   -0.29071    -0.26833    -1.28686
   O       6       -1.34917    -0.37803    -0.60082
                   -0.14781    -1.04810    -0.42119
                   -0.29071    -0.26833    -1.28686
   O       7       -1.08900     0.32531    -0.20450
                    0.51188    -1.35338     0.18024
                   -0.39316     0.42180    -1.14577
   O       8       -1.08900     0.32531    -0.20450
                    0.51188    -1.35338     0.18024
                   -0.39316     0.42180    -1.14577
   Na      1        1.30415     0.02630    -0.02750
                    0.04817     1.25372    -0.04923
                   -0.00435    -0.03569     1.26436
   Na      2        1.30415     0.02630    -0.02750
                    0.04817     1.25372    -0.04923
                   -0.00435    -0.03569     1.26436
   S       1        2.82525     0.15134     0.26257
                   -0.57772     3.20398     0.79712
                   -0.00968     0.02137     3.15834
   S       2        2.82525     0.15134     0.26257
                   -0.57772     3.20398     0.79712
                   -0.00968     0.02137     3.15834
 ===================================================

 ******************** Symmetrised Forces ********************
 *                                                          *
 *               Cartesian components (eV/A)                *
 * -------------------------------------------------------- *
 *                         x            y            z      *
 *                                                          *
 * O               1      0.00029     -0.00012      0.00025 *
 * O               2     -0.00029      0.00012     -0.00025 *
 * O               3     -0.00018     -0.00013     -0.00013 *
 * O               4      0.00018      0.00013      0.00013 *
 * O               5     -0.00040      0.00026     -0.00004 *
 * O               6      0.00040     -0.00026      0.00004 *
 * O               7     -0.00035     -0.00038     -0.00035 *
 * O               8      0.00035      0.00038      0.00035 *
 * Na              1     -0.00032     -0.00031      0.00022 *
 * Na              2      0.00032      0.00031     -0.00022 *
 * S               1     -0.00020     -0.00009     -0.00013 *
 * S               2      0.00020      0.00009      0.00013 *
 *                                                          *
 ************************************************************

 ************** Ewald stress tensor **************
 *                                               *
 *          Cartesian components (GPa)           *
 * --------------------------------------------- *
 *             x             y             z     *
 *                                               *
 *  x   1432.387103   -100.852321    155.681474  *
 *  y   -100.852321   1431.223389     35.053483  *
 *  z    155.681474     35.053483   1287.003744  *
 *                                               *
 *  Pressure:-1383.5381                          *
 *                                               *
 *************************************************

 ********* Kinetic energy stress tensor **********
 *                                               *
 *          Cartesian components (GPa)           *
 * --------------------------------------------- *
 *             x             y             z     *
 *                                               *
 *  x  -2814.257522     31.685501    -36.156993  *
 *  y     31.685501  -2820.202542    -26.485108  *
 *  z    -36.156993    -26.485108  -2822.705507  *
 *                                               *
 *  Pressure: 2819.0552                          *
 *                                               *
 *************************************************

 ********* Local potential stress tensor *********
 *                                               *
 *          Cartesian components (GPa)           *
 * --------------------------------------------- *
 *             x             y             z     *
 *                                               *
 *  x    548.110428     74.565935   -132.758021  *
 *  y     74.565935    553.660415    -11.345624  *
 *  z   -132.758021    -11.345624    701.910501  *
 *                                               *
 *  Pressure: -601.2271                          *
 *                                               *
 *************************************************

 ******* Non-local potential stress tensor *******
 *                                               *
 *          Cartesian components (GPa)           *
 * --------------------------------------------- *
 *             x             y             z     *
 *                                               *
 *  x    984.818615     -7.193206     15.467097  *
 *  y     -7.193206    985.724575      3.960454  *
 *  z     15.467097      3.960454    984.267643  *
 *                                               *
 *  Pressure: -984.9369                          *
 *                                               *
 *************************************************

 *** NL screened/exact exchange stress tensor ****
 *                                               *
 *          Cartesian components (GPa)           *
 * --------------------------------------------- *
 *             x             y             z     *
 *                                               *
 *  x      0.000000      0.000000      0.000000  *
 *  y      0.000000      0.000000      0.000000  *
 *  z      0.000000      0.000000      0.000000  *
 *                                               *
 *  Pressure:   -0.0000                          *
 *                                               *
 *************************************************

 ************** MGGA stress tensor ***************
 *                                               *
 *          Cartesian components (GPa)           *
 * --------------------------------------------- *
 *             x             y             z     *
 *                                               *
 *  x      0.000000      0.000000      0.000000  *
 *  y      0.000000      0.000000      0.000000  *
 *  z      0.000000      0.000000      0.000000  *
 *                                               *
 *  Pressure:   -0.0000                          *
 *                                               *
 *************************************************

 *********** Symmetrised Stress Tensor ***********
 *                                               *
 *          Cartesian components (GPa)           *
 * --------------------------------------------- *
 *             x             y             z     *
 *                                               *
 *  x    151.058624     -1.794092      2.233557  *
 *  y     -1.794092    150.405837      1.183205  *
 *  z      2.233557      1.183205    150.476381  *
 *                                               *
 *  Pressure: -150.6469                          *
 *                                               *
 *************************************************

 Pseudo atomic calculation performed for O 2s2 2p4

 Converged in 43 iterations to a total energy of -425.2271 eV

 Pseudo atomic calculation performed for Na 2s2 2p6 3s1

 Converged in 31 iterations to a total energy of -1224.2987 eV

 Pseudo atomic calculation performed for S 3s2 3p4

 Converged in 34 iterations to a total energy of -299.9652 eV
Charge spilling parameter for spin component 1 = 1.26%

            Orbital Populations       
     Ion    Atom   Orbital             Charge
  -------------------------------------------
      O     1      S                    1.918
      O     1      Px                   1.535
      O     1      Py                   1.526
      O     1      Pz                   1.484
      O     2      S                    1.918
      O     2      Px                   1.535
      O     2      Py                   1.526
      O     2      Pz                   1.484
      O     3      S                    1.893
      O     3      Px                   1.662
      O     3      Py                   1.670
      O     3      Pz                   1.685
      O     4      S                    1.893
      O     4      Px                   1.662
      O     4      Py                   1.670
      O     4      Pz                   1.685
      O     5      S                    1.888
      O     5      Px                   1.562
      O     5      Py                   1.768
      O     5      Pz                   1.708
      O     6      S                    1.888
      O     6      Px                   1.562
      O     6      Py                   1.767
      O     6      Pz                   1.708
      O     7      S                    1.892
      O     7      Px                   1.730
      O     7      Py                   1.629
      O     7      Pz                   1.676
      O     8      S                    1.892
      O     8      Px                   1.730
      O     8      Py                   1.628
      O     8      Pz                   1.676
     Na     1      S                    2.000
     Na     1      Px                   2.000
     Na     1      Py                   2.000
     Na     1      Pz                   2.000
     Na     1      S                    0.082
     Na     1      Px                  -0.004
     Na     1      Py                  -0.013
     Na     1      Pz                   0.036
     Na     2      S                    2.000
     Na     2      Px                   2.000
     Na     2      Py                   2.000
     Na     2      Pz                   2.000
     Na     2      S                    0.082
     Na     2      Px                  -0.004
     Na     2      Py                  -0.013
     Na     2      Pz                   0.036
      S     1      S                    1.145
      S     1      Px                   0.833
      S     1      Py                   0.836
      S     1      Pz                   0.859
      S     2      S                    1.145
      S     2      Px                   0.833
      S     2      Py                   0.836
      S     2      Pz                   0.859
  -------------------------------------------
                           Total:      77.996
  -------------------------------------------
The total projected population is   77.996  -0.000

     Atomic Populations (Mulliken)
     -----------------------------
Species          Ion     s       p       d       f      Total   Charge (e)
==========================================================================
  O               1     1.918   4.544   0.000   0.000   6.462    -0.462
  O               2     1.918   4.544   0.000   0.000   6.462    -0.462
  O               3     1.893   5.017   0.000   0.000   6.910    -0.910
  O               4     1.893   5.017   0.000   0.000   6.910    -0.910
  O               5     1.888   5.038   0.000   0.000   6.926    -0.926
  O               6     1.888   5.038   0.000   0.000   6.926    -0.926
  O               7     1.892   5.034   0.000   0.000   6.926    -0.926
  O               8     1.892   5.034   0.000   0.000   6.926    -0.926
  Na              1     2.083   6.019   0.000   0.000   8.101     0.899
  Na              2     2.083   6.019   0.000   0.000   8.101     0.899
  S               1     1.145   2.528   0.000   0.000   3.673     2.327
  S               2     1.145   2.528   0.000   0.000   3.673     2.327
==========================================================================

                 Bond                   Population      Length (A)
======================================================================
               O 6 -- S 2                    0.65        1.46008
               O 5 -- S 1                    0.65        1.46008
               O 8 -- S 2                    0.66        1.46209
               O 7 -- S 1                    0.66        1.46209
               O 4 -- S 2                    0.64        1.46544
               O 3 -- S 1                    0.64        1.46544
               O 1 -- O 2                    0.12        1.56486
               O 1 -- S 1                    0.33        1.64680
               O 2 -- S 2                    0.33        1.64680
               O 1 -- O 3                   -0.15        2.32731
               O 2 -- O 4                   -0.15        2.32731
               O 8 -- Na 1                   0.06        2.33352
               O 7 -- Na 2                   0.06        2.33352
               O 5 -- Na 2                   0.06        2.36232
               O 6 -- Na 1                   0.06        2.36232
               O 5 -- Na 1                   0.07        2.38268
               O 6 -- Na 2                   0.07        2.38268
               O 4 -- Na 2                   0.04        2.39420
               O 3 -- Na 1                   0.04        2.39420
               O 4 -- Na 1                   0.06        2.43265
               O 3 -- Na 2                   0.06        2.43265
               O 6 -- O 8                   -0.19        2.43840
               O 5 -- O 7                   -0.19        2.43840
               O 4 -- O 8                   -0.16        2.47195
               O 3 -- O 7                   -0.16        2.47195
               O 4 -- O 6                   -0.18        2.47542
               O 3 -- O 5                   -0.18        2.47542
               O 2 -- O 6                   -0.14        2.49317
               O 1 -- O 5                   -0.14        2.49317
               O 1 -- O 7                   -0.14        2.51175
               O 2 -- O 8                   -0.14        2.51175
               O 7 -- Na 1                   0.06        2.53456
               O 8 -- Na 2                   0.06        2.53456
               O 2 -- S 1                   -0.08        2.56019
               O 1 -- S 2                   -0.08        2.56019
               O 2 -- O 5                   -0.01        2.88318
               O 1 -- O 6                   -0.01        2.88318
               O 2 -- O 7                   -0.02        2.91924
               O 1 -- O 8                   -0.02        2.91924
               O 3 -- O 4                   -0.02        2.97175
               O 4 -- O 5                   -0.03        2.97852
               O 3 -- O 6                   -0.03        2.97852
======================================================================


Writing analysis data to phonon.castep_bin

Writing model to phonon.check
 
 A BibTeX formatted list of references used in this run has been written to 
 phonon.bib
 
Initialisation time =      4.58 s
Calculation time    =   6227.95 s
Finalisation time   =      0.40 s
Total time          =   6232.93 s
Peak Memory Use     = 870912 kB
 
Overall parallel efficiency rating: Mediocre (58%)
 
Data was distributed by:-
G-vector (8-way); efficiency rating: Mediocre (58%)
 
Parallel notes:
1) SMP optimisations were used (num_proc_in_smp=0).
2) k-points were not distributed.
