 vasp.5.3.3 18Dez12 (build Nov 29 2013 15:18:52) complex                         
 executed on             GFORTRAN date 2014.01.26  18:56:56
 running on    4 total cores
 distrk:  each k-point on    4 cores,    1 groups
 distr:  one band on NCORES_PER_BAND=   1 cores,    4 groups


--------------------------------------------------------------------------------------------------------


 INCAR:
 POTCAR:    PAW_PBE Zn 06Sep2000                  
 POTCAR:    PAW_PBE O 08Apr2002                   
 POTCAR:    PAW_PBE Zn 06Sep2000                  
   VRHFIN =Zn: d10 p2                                                           
   LEXCH  = PE                                                                  
   EATOM  =  1748.8345 eV,  128.5357 Ry                                         
                                                                                
   TITEL  = PAW_PBE Zn 06Sep2000                                                
   LULTRA =        F    use ultrasoft PP ?                                      
   IUNSCR =        1    unscreen: 0-lin 1-nonlin 2-no                           
   RPACOR =    2.000    partial core radius                                     
   POMASS =   65.390; ZVAL   =   12.000    mass and valenz                      
   RCORE  =    2.300    outmost cutoff radius                                   
   RWIGS  =    2.400; RWIGS  =    1.270    wigner-seitz radius (au A)           
   ENMAX  =  276.723; ENMIN  =  207.542 eV                                      
   RCLOC  =    1.828    cutoff for local pot                                    
   LCOR   =        T    correct aug charges                                     
   LPAW   =        T    paw PP                                                  
   EAUG   =  575.892                                                            
   DEXC   =    0.000                                                            
   RMAX   =    2.347    core radius for proj-oper                               
   RAUG   =    1.300    factor for augmentation sphere                          
   RDEP   =    2.324    radius for radial grids                                 
   RDEPT  =    1.788    core radius for aug-charge                              
                                                                                
   Atomic configuration                                                         
    9 entries                                                                   
     n  l   j            E        occ.                                          
     1  0  0.50     -9524.6913   2.0000                                         
     2  0  0.50     -1158.1882   2.0000                                         
     2  1  1.50     -1003.8506   6.0000                                         
     3  0  0.50      -129.2194   2.0000                                         
     3  1  1.50       -83.3890   6.0000                                         
     3  2  2.50       -10.1410  10.0000                                         
     4  0  0.50        -5.9785   2.0000                                         
     4  1  0.50        -4.0817   0.0000                                         
     4  3  2.50        -1.3606   0.0000                                         
   Description                                                                  
     l       E           TYP  RCUT    TYP  RCUT                                 
     2    -10.1410010     23  2.300                                             
     2    -11.5015836     23  2.300                                             
     0     -5.9785163     23  2.300                                             
     0      1.1858015     23  2.300                                             
     1     -2.7211652     23  2.300                                             
     1     13.2444212     23  2.300                                             
  local pseudopotential read in
  partial core-charges read in
  partial kinetic energy density read in
  atomic valenz-charges read in
  non local Contribution for L=           2  read in
    real space projection operators read in
  non local Contribution for L=           2  read in
    real space projection operators read in
  non local Contribution for L=           0  read in
    real space projection operators read in
  non local Contribution for L=           0  read in
    real space projection operators read in
  non local Contribution for L=           1  read in
    real space projection operators read in
  non local Contribution for L=           1  read in
    real space projection operators read in
    PAW grid and wavefunctions read in

   number of l-projection  operators is LMAX  =           6
   number of lm-projection operators is LMMAX =          18

 POTCAR:    PAW_PBE O 08Apr2002                   
   VRHFIN =O: s2p4                                                              
   LEXCH  = PE                                                                  
   EATOM  =   432.3788 eV,   31.7789 Ry                                         
                                                                                
   TITEL  = PAW_PBE O 08Apr2002                                                 
   LULTRA =        F    use ultrasoft PP ?                                      
   IUNSCR =        1    unscreen: 0-lin 1-nonlin 2-no                           
   RPACOR =    1.200    partial core radius                                     
   POMASS =   16.000; ZVAL   =    6.000    mass and valenz                      
   RCORE  =    1.520    outmost cutoff radius                                   
   RWIGS  =    1.550; RWIGS  =    0.820    wigner-seitz radius (au A)           
   ENMAX  =  400.000; ENMIN  =  300.000 eV                                      
   ICORE  =        2    local potential                                         
   LCOR   =        T    correct aug charges                                     
   LPAW   =        T    paw PP                                                  
   EAUG   =  605.392                                                            
   DEXC   =    0.000                                                            
   RMAX   =    1.553    core radius for proj-oper                               
   RAUG   =    1.300    factor for augmentation sphere                          
   RDEP   =    1.550    radius for radial grids                                 
   RDEPT  =    1.329    core radius for aug-charge                              
                                                                                
   Atomic configuration                                                         
    4 entries                                                                   
     n  l   j            E        occ.                                          
     1  0  0.50      -514.6923   2.0000                                         
     2  0  0.50       -23.9615   2.0000                                         
     2  1  0.50        -9.0305   4.0000                                         
     3  2  1.50        -9.5241   0.0000                                         
   Description                                                                  
     l       E           TYP  RCUT    TYP  RCUT                                 
     0    -23.9615318     23  1.200                                             
     0     -9.5240782     23  1.200                                             
     1     -9.0304911     23  1.520                                             
     1      8.1634956     23  1.520                                             
     2     -9.5240782      7  1.500                                             
  local pseudopotential read in
  partial core-charges read in
  partial kinetic energy density read in
  kinetic energy density of atom read in
  atomic valenz-charges read in
  non local Contribution for L=           0  read in
    real space projection operators read in
  non local Contribution for L=           0  read in
    real space projection operators read in
  non local Contribution for L=           1  read in
    real space projection operators read in
  non local Contribution for L=           1  read in
    real space projection operators read in
    PAW grid and wavefunctions read in

   number of l-projection  operators is LMAX  =           4
   number of lm-projection operators is LMMAX =           8

  PAW_PBE Zn 06Sep2000                  :
 energy of atom  1       EATOM=-1748.8345
 kinetic energy error for atom=    0.0020 (will be added to EATOM!!)
  PAW_PBE O 08Apr2002                   :
 energy of atom  2       EATOM= -432.3788
 kinetic energy error for atom=    0.0168 (will be added to EATOM!!)


 POSCAR: Generated by cif2cell 1.1.0.  :  S.C.Abr
  positions in direct lattice
  velocities in cartesian coordinates
 exchange correlation table for  LEXCH =        8
   RHO(1)=    0.500       N(1)  =     2000
   RHO(2)=  100.500       N(2)  =     4000



--------------------------------------------------------------------------------------------------------


 ion  position               nearest neighbor table
   1  0.333  0.667  0.001-   4 2.00   4 2.00   4 2.00   3 2.01
   2  0.667  0.333  0.501-   3 2.00   3 2.00   3 2.00   4 2.01
   3  0.333  0.667  0.382-   2 2.00   2 2.00   2 2.00   1 2.01
   4  0.667  0.333  0.882-   1 2.00   1 2.00   1 2.00   2 2.01

  LATTYP: Found a hexagonal cell.
 ALAT       =     3.2950581330
 C/A-ratio  =     1.6038637181
  
  Lattice vectors:
  
 A1 = (   2.8536040501,  -1.6475290665,   0.0000000000)
 A2 = (   0.0000000000,   3.2950581330,   0.0000000000)
 A3 = (   0.0000000000,   0.0000000000,   5.2848241887)


Analysis of symmetry for initial positions (statically):
=====================================================================
 Subroutine PRICEL returns:
 Original cell was already a primitive cell.
 

 Routine SETGRP: Setting up the symmetry group for a 
 hexagonal supercell.


 Subroutine GETGRP returns: Found 12 space group operations
 (whereof  6 operations were pure point group operations)
 out of a pool of 24 trial point group operations.


The static configuration has the point symmetry C_3v.
 The point group associated with its full space group is C_6v.


Analysis of symmetry for dynamics (positions and initial velocities):
=====================================================================
 Subroutine PRICEL returns:
 Original cell was already a primitive cell.
 

 Routine SETGRP: Setting up the symmetry group for a 
 hexagonal supercell.


 Subroutine GETGRP returns: Found 12 space group operations
 (whereof  6 operations were pure point group operations)
 out of a pool of 24 trial point group operations.


The dynamic configuration has the point symmetry C_3v.
 The point group associated with its full space group is C_6v.


 irot  :   1
 --------------------------------------------------------------------
 isymop:   1   0   0
           0   1   0
           0   0   1

 gtrans:     0.0000000     0.0000000     0.0000000

 ptrans:     0.0000000     0.0000000     0.0000000
 rotmap:
 (   1->   1)  (   2->   2)  (   3->   3)  (   4->   4) 


 irot  :   2
 --------------------------------------------------------------------
 isymop:   0  -1   0
           1  -1   0
           0   0   1

 gtrans:     0.0000000     0.0000000     0.0000000

 ptrans:     0.0000000     0.0000000     0.0000000
 rotmap:
 (   1->   1)  (   2->   2)  (   3->   3)  (   4->   4) 


 irot  :   3
 --------------------------------------------------------------------
 isymop:  -1   1   0
          -1   0   0
           0   0   1

 gtrans:     0.0000000     0.0000000     0.0000000

 ptrans:     0.0000000     0.0000000     0.0000000
 rotmap:
 (   1->   1)  (   2->   2)  (   3->   3)  (   4->   4) 


 irot  :   4
 --------------------------------------------------------------------
 isymop:  -1   1   0
           0   1   0
           0   0   1

 gtrans:     0.0000000     0.0000000     0.0000000

 ptrans:     0.0000000     0.0000000     0.0000000
 rotmap:
 (   1->   1)  (   2->   2)  (   3->   3)  (   4->   4) 


 irot  :   5
 --------------------------------------------------------------------
 isymop:   1   0   0
           1  -1   0
           0   0   1

 gtrans:     0.0000000     0.0000000     0.0000000

 ptrans:     0.0000000     0.0000000     0.0000000
 rotmap:
 (   1->   1)  (   2->   2)  (   3->   3)  (   4->   4) 


 irot  :   6
 --------------------------------------------------------------------
 isymop:   0  -1   0
          -1   0   0
           0   0   1

 gtrans:     0.0000000     0.0000000     0.0000000

 ptrans:     0.0000000     0.0000000     0.0000000
 rotmap:
 (   1->   1)  (   2->   2)  (   3->   3)  (   4->   4) 


 irot  :   7
 --------------------------------------------------------------------
 isymop:   1  -1   0
           1   0   0
           0   0   1

 gtrans:     0.0000000     0.0000000     0.5000000

 ptrans:     0.0000000     0.0000000     0.0000000
 rotmap:
 (   1->   2)  (   2->   1)  (   3->   4)  (   4->   3) 


 irot  :   8
 --------------------------------------------------------------------
 isymop:  -1   0   0
           0  -1   0
           0   0   1

 gtrans:     0.0000000     0.0000000     0.5000000

 ptrans:     0.0000000     0.0000000     0.0000000
 rotmap:
 (   1->   2)  (   2->   1)  (   3->   4)  (   4->   3) 


 irot  :   9
 --------------------------------------------------------------------
 isymop:   0   1   0
          -1   1   0
           0   0   1

 gtrans:     0.0000000     0.0000000     0.5000000

 ptrans:     0.0000000     0.0000000     0.0000000
 rotmap:
 (   1->   2)  (   2->   1)  (   3->   4)  (   4->   3) 


 irot  :  10
 --------------------------------------------------------------------
 isymop:   0   1   0
           1   0   0
           0   0   1

 gtrans:     0.0000000     0.0000000     0.5000000

 ptrans:     0.0000000     0.0000000     0.0000000
 rotmap:
 (   1->   2)  (   2->   1)  (   3->   4)  (   4->   3) 


 irot  :  11
 --------------------------------------------------------------------
 isymop:   1  -1   0
           0  -1   0
           0   0   1

 gtrans:     0.0000000     0.0000000     0.5000000

 ptrans:     0.0000000     0.0000000     0.0000000
 rotmap:
 (   1->   2)  (   2->   1)  (   3->   4)  (   4->   3) 


 irot  :  12
 --------------------------------------------------------------------
 isymop:  -1   0   0
          -1   1   0
           0   0   1

 gtrans:     0.0000000     0.0000000     0.5000000

 ptrans:     0.0000000     0.0000000     0.0000000
 rotmap:
 (   1->   2)  (   2->   1)  (   3->   4)  (   4->   3) 


 KPOINTS: Generated by cif2cell 1.1.0. k-space res

Automatic generation of k-mesh.
Space group operators:
 irot       det(A)        alpha          n_x          n_y          n_z        tau_x        tau_y        tau_z
    1     1.000000     0.000000     1.000000     0.000000     0.000000     0.000000     0.000000     0.000000
    2     1.000000   120.000000     0.000000     0.000000    -1.000000     0.000000     0.000000     0.000000
    3     1.000000   120.000000     0.000000     0.000000     1.000000     0.000000     0.000000     0.000000
    4    -1.000000   180.000000     0.866025    -0.500000     0.000000     0.000000     0.000000     0.000000
    5    -1.000000   180.000000     0.000000     1.000000     0.000000     0.000000     0.000000     0.000000
    6    -1.000000   180.000000     0.866025     0.500000     0.000000     0.000000     0.000000     0.000000
    7     1.000000    60.000000     0.000000     0.000000    -1.000000     0.000000     0.000000     0.500000
    8     1.000000   179.999999     0.000000     0.000000     1.000000     0.000000     0.000000     0.500000
    9     1.000000    60.000000     0.000000     0.000000     1.000000     0.000000     0.000000     0.500000
   10    -1.000000   180.000000     0.500000    -0.866025     0.000000     0.000000     0.000000     0.500000
   11    -1.000000   180.000000    -0.500000    -0.866025     0.000000     0.000000     0.000000     0.500000
   12    -1.000000   180.000000     1.000000     0.000000     0.000000     0.000000     0.000000     0.500000
 
 Subroutine IBZKPT returns following result:
 ===========================================
 
 Found     64 irreducible k-points:
 
 Following reciprocal coordinates:
            Coordinates               Weight
  0.000000  0.000000  0.000000      1.000000
  0.090909  0.000000  0.000000      6.000000
  0.181818  0.000000  0.000000      6.000000
  0.272727  0.000000  0.000000      6.000000
  0.363636  0.000000  0.000000      6.000000
  0.454545  0.000000  0.000000      6.000000
  0.090909  0.090909  0.000000      6.000000
  0.181818  0.090909  0.000000     12.000000
  0.272727  0.090909  0.000000     12.000000
  0.363636  0.090909  0.000000     12.000000
  0.454545  0.090909  0.000000      6.000000
  0.181818  0.181818  0.000000      6.000000
  0.272727  0.181818  0.000000     12.000000
  0.363636  0.181818  0.000000     12.000000
  0.272727  0.272727  0.000000      6.000000
  0.363636  0.272727  0.000000      6.000000
  0.000000  0.000000  0.166667      2.000000
  0.090909  0.000000  0.166667     12.000000
  0.181818  0.000000  0.166667     12.000000
  0.272727  0.000000  0.166667     12.000000
  0.363636  0.000000  0.166667     12.000000
  0.454545  0.000000  0.166667     12.000000
  0.090909  0.090909  0.166667     12.000000
  0.181818  0.090909  0.166667     24.000000
  0.272727  0.090909  0.166667     24.000000
  0.363636  0.090909  0.166667     24.000000
  0.454545  0.090909  0.166667     12.000000
  0.181818  0.181818  0.166667     12.000000
  0.272727  0.181818  0.166667     24.000000
  0.363636  0.181818  0.166667     24.000000
  0.272727  0.272727  0.166667     12.000000
  0.363636  0.272727  0.166667     12.000000
  0.000000  0.000000  0.333333      2.000000
  0.090909  0.000000  0.333333     12.000000
  0.181818  0.000000  0.333333     12.000000
  0.272727  0.000000  0.333333     12.000000
  0.363636  0.000000  0.333333     12.000000
  0.454545  0.000000  0.333333     12.000000
  0.090909  0.090909  0.333333     12.000000
  0.181818  0.090909  0.333333     24.000000
  0.272727  0.090909  0.333333     24.000000
  0.363636  0.090909  0.333333     24.000000
  0.454545  0.090909  0.333333     12.000000
  0.181818  0.181818  0.333333     12.000000
  0.272727  0.181818  0.333333     24.000000
  0.363636  0.181818  0.333333     24.000000
  0.272727  0.272727  0.333333     12.000000
  0.363636  0.272727  0.333333     12.000000
  0.000000  0.000000  0.500000      1.000000
  0.090909  0.000000  0.500000      6.000000
  0.181818  0.000000  0.500000      6.000000
  0.272727  0.000000  0.500000      6.000000
  0.363636  0.000000  0.500000      6.000000
  0.454545  0.000000  0.500000      6.000000
  0.090909  0.090909  0.500000      6.000000
  0.181818  0.090909  0.500000     12.000000
  0.272727  0.090909  0.500000     12.000000
  0.363636  0.090909  0.500000     12.000000
  0.454545  0.090909  0.500000      6.000000
  0.181818  0.181818  0.500000      6.000000
  0.272727  0.181818  0.500000     12.000000
  0.363636  0.181818  0.500000     12.000000
  0.272727  0.272727  0.500000      6.000000
  0.363636  0.272727  0.500000      6.000000
 
 Following cartesian coordinates:
            Coordinates               Weight
  0.000000  0.000000  0.000000      1.000000
  0.103537  0.000000  0.000000      6.000000
  0.207075  0.000000  0.000000      6.000000
  0.310612  0.000000  0.000000      6.000000
  0.414149  0.000000  0.000000      6.000000
  0.517687  0.000000  0.000000      6.000000
  0.155306  0.089666  0.000000      6.000000
  0.258843  0.089666  0.000000     12.000000
  0.362381  0.089666  0.000000     12.000000
  0.465918  0.089666  0.000000     12.000000
  0.569455  0.089666  0.000000      6.000000
  0.310612  0.179332  0.000000      6.000000
  0.414149  0.179332  0.000000     12.000000
  0.517687  0.179332  0.000000     12.000000
  0.465918  0.268998  0.000000      6.000000
  0.569455  0.268998  0.000000      6.000000
  0.000000  0.000000  0.102495      2.000000
  0.103537  0.000000  0.102495     12.000000
  0.207075  0.000000  0.102495     12.000000
  0.310612  0.000000  0.102495     12.000000
  0.414149  0.000000  0.102495     12.000000
  0.517687  0.000000  0.102495     12.000000
  0.155306  0.089666  0.102495     12.000000
  0.258843  0.089666  0.102495     24.000000
  0.362381  0.089666  0.102495     24.000000
  0.465918  0.089666  0.102495     24.000000
  0.569455  0.089666  0.102495     12.000000
  0.310612  0.179332  0.102495     12.000000
  0.414149  0.179332  0.102495     24.000000
  0.517687  0.179332  0.102495     24.000000
  0.465918  0.268998  0.102495     12.000000
  0.569455  0.268998  0.102495     12.000000
  0.000000  0.000000  0.204989      2.000000
  0.103537  0.000000  0.204989     12.000000
  0.207075  0.000000  0.204989     12.000000
  0.310612  0.000000  0.204989     12.000000
  0.414149  0.000000  0.204989     12.000000
  0.517687  0.000000  0.204989     12.000000
  0.155306  0.089666  0.204989     12.000000
  0.258843  0.089666  0.204989     24.000000
  0.362381  0.089666  0.204989     24.000000
  0.465918  0.089666  0.204989     24.000000
  0.569455  0.089666  0.204989     12.000000
  0.310612  0.179332  0.204989     12.000000
  0.414149  0.179332  0.204989     24.000000
  0.517687  0.179332  0.204989     24.000000
  0.465918  0.268998  0.204989     12.000000
  0.569455  0.268998  0.204989     12.000000
  0.000000  0.000000  0.307484      1.000000
  0.103537  0.000000  0.307484      6.000000
  0.207075  0.000000  0.307484      6.000000
  0.310612  0.000000  0.307484      6.000000
  0.414149  0.000000  0.307484      6.000000
  0.517687  0.000000  0.307484      6.000000
  0.155306  0.089666  0.307484      6.000000
  0.258843  0.089666  0.307484     12.000000
  0.362381  0.089666  0.307484     12.000000
  0.465918  0.089666  0.307484     12.000000
  0.569455  0.089666  0.307484      6.000000
  0.310612  0.179332  0.307484      6.000000
  0.414149  0.179332  0.307484     12.000000
  0.517687  0.179332  0.307484     12.000000
  0.465918  0.268998  0.307484      6.000000
  0.569455  0.268998  0.307484      6.000000
 
 
 Subroutine IBZKPT_HF returns following result:
 ==============================================
 
 Found    726 k-points in 1st BZ
 the following    726 k-points will be used (e.g. in the exchange kernel)
 Following reciprocal coordinates:   # in IRBZ
  0.000000  0.000000  0.000000       1 t-inv F
  0.090909  0.000000  0.000000       2 t-inv F
  0.181818  0.000000  0.000000       3 t-inv F
  0.272727  0.000000  0.000000       4 t-inv F
  0.363636  0.000000  0.000000       5 t-inv F
  0.454545  0.000000  0.000000       6 t-inv F
  0.090909  0.090909  0.000000       7 t-inv F
  0.181818  0.090909  0.000000       8 t-inv F
  0.272727  0.090909  0.000000       9 t-inv F
  0.363636  0.090909  0.000000      10 t-inv F
  0.454545  0.090909  0.000000      11 t-inv F
  0.181818  0.181818  0.000000      12 t-inv F
  0.272727  0.181818  0.000000      13 t-inv F
  0.363636  0.181818  0.000000      14 t-inv F
  0.272727  0.272727  0.000000      15 t-inv F
  0.363636  0.272727  0.000000      16 t-inv F
  0.000000  0.000000  0.166667      17 t-inv F
  0.090909  0.000000  0.166667      18 t-inv F
  0.181818  0.000000  0.166667      19 t-inv F
  0.272727  0.000000  0.166667      20 t-inv F
  0.363636  0.000000  0.166667      21 t-inv F
  0.454545  0.000000  0.166667      22 t-inv F
  0.090909  0.090909  0.166667      23 t-inv F
  0.181818  0.090909  0.166667      24 t-inv F
  0.272727  0.090909  0.166667      25 t-inv F
  0.363636  0.090909  0.166667      26 t-inv F
  0.454545  0.090909  0.166667      27 t-inv F
  0.181818  0.181818  0.166667      28 t-inv F
  0.272727  0.181818  0.166667      29 t-inv F
  0.363636  0.181818  0.166667      30 t-inv F
  0.272727  0.272727  0.166667      31 t-inv F
  0.363636  0.272727  0.166667      32 t-inv F
  0.000000  0.000000  0.333333      33 t-inv F
  0.090909  0.000000  0.333333      34 t-inv F
  0.181818  0.000000  0.333333      35 t-inv F
  0.272727  0.000000  0.333333      36 t-inv F
  0.363636  0.000000  0.333333      37 t-inv F
  0.454545  0.000000  0.333333      38 t-inv F
  0.090909  0.090909  0.333333      39 t-inv F
  0.181818  0.090909  0.333333      40 t-inv F
  0.272727  0.090909  0.333333      41 t-inv F
  0.363636  0.090909  0.333333      42 t-inv F
  0.454545  0.090909  0.333333      43 t-inv F
  0.181818  0.181818  0.333333      44 t-inv F
  0.272727  0.181818  0.333333      45 t-inv F
  0.363636  0.181818  0.333333      46 t-inv F
  0.272727  0.272727  0.333333      47 t-inv F
  0.363636  0.272727  0.333333      48 t-inv F
  0.000000  0.000000  0.500000      49 t-inv F
  0.090909  0.000000  0.500000      50 t-inv F
  0.181818  0.000000  0.500000      51 t-inv F
  0.272727  0.000000  0.500000      52 t-inv F
  0.363636  0.000000  0.500000      53 t-inv F
  0.454545  0.000000  0.500000      54 t-inv F
  0.090909  0.090909  0.500000      55 t-inv F
  0.181818  0.090909  0.500000      56 t-inv F
  0.272727  0.090909  0.500000      57 t-inv F
  0.363636  0.090909  0.500000      58 t-inv F
  0.454545  0.090909  0.500000      59 t-inv F
  0.181818  0.181818  0.500000      60 t-inv F
  0.272727  0.181818  0.500000      61 t-inv F
  0.363636  0.181818  0.500000      62 t-inv F
  0.272727  0.272727  0.500000      63 t-inv F
  0.363636  0.272727  0.500000      64 t-inv F
 -0.090909  0.090909  0.000000       2 t-inv F
  0.000000 -0.090909  0.000000       2 t-inv F
 -0.000000  0.090909  0.000000       2 t-inv F
 -0.090909 -0.000000  0.000000       2 t-inv F
  0.090909 -0.090909  0.000000       2 t-inv F
 -0.181818  0.181818  0.000000       3 t-inv F
  0.000000 -0.181818  0.000000       3 t-inv F
 -0.000000  0.181818  0.000000       3 t-inv F
 -0.181818 -0.000000  0.000000       3 t-inv F
  0.181818 -0.181818  0.000000       3 t-inv F
 -0.272727  0.272727  0.000000       4 t-inv F
  0.000000 -0.272727  0.000000       4 t-inv F
 -0.000000  0.272727  0.000000       4 t-inv F
 -0.272727 -0.000000  0.000000       4 t-inv F
  0.272727 -0.272727  0.000000       4 t-inv F
 -0.363636  0.363636  0.000000       5 t-inv F
  0.000000 -0.363636  0.000000       5 t-inv F
 -0.000000  0.363636  0.000000       5 t-inv F
 -0.363636 -0.000000  0.000000       5 t-inv F
  0.363636 -0.363636  0.000000       5 t-inv F
 -0.454545  0.454545  0.000000       6 t-inv F
  0.000000 -0.454545  0.000000       6 t-inv F
 -0.000000  0.454545  0.000000       6 t-inv F
 -0.454545 -0.000000  0.000000       6 t-inv F
  0.454545 -0.454545  0.000000       6 t-inv F
 -0.181818  0.090909  0.000000       7 t-inv F
  0.090909 -0.181818  0.000000       7 t-inv F
 -0.090909  0.181818  0.000000       7 t-inv F
  0.181818 -0.090909  0.000000       7 t-inv F
 -0.090909 -0.090909  0.000000       7 t-inv F
 -0.272727  0.181818  0.000000       8 t-inv F
  0.090909 -0.272727  0.000000       8 t-inv F
 -0.181818  0.272727  0.000000       8 t-inv F
  0.272727 -0.090909  0.000000       8 t-inv F
 -0.090909 -0.181818  0.000000       8 t-inv F
 -0.090909  0.272727  0.000000       8 t-inv F
 -0.181818 -0.090909  0.000000       8 t-inv F
  0.272727 -0.181818  0.000000       8 t-inv F
  0.090909  0.181818  0.000000       8 t-inv F
  0.181818 -0.272727  0.000000       8 t-inv F
 -0.272727  0.090909  0.000000       8 t-inv F
 -0.363636  0.272727  0.000000       9 t-inv F
  0.090909 -0.363636  0.000000       9 t-inv F
 -0.272727  0.363636  0.000000       9 t-inv F
  0.363636 -0.090909  0.000000       9 t-inv F
 -0.090909 -0.272727  0.000000       9 t-inv F
 -0.090909  0.363636  0.000000       9 t-inv F
 -0.272727 -0.090909  0.000000       9 t-inv F
  0.363636 -0.272727  0.000000       9 t-inv F
  0.090909  0.272727  0.000000       9 t-inv F
  0.272727 -0.363636  0.000000       9 t-inv F
 -0.363636  0.090909  0.000000       9 t-inv F
 -0.454545  0.363636  0.000000      10 t-inv F
  0.090909 -0.454545  0.000000      10 t-inv F
 -0.363636  0.454545  0.000000      10 t-inv F
  0.454545 -0.090909  0.000000      10 t-inv F
 -0.090909 -0.363636  0.000000      10 t-inv F
 -0.090909  0.454545  0.000000      10 t-inv F
 -0.363636 -0.090909  0.000000      10 t-inv F
  0.454545 -0.363636  0.000000      10 t-inv F
  0.090909  0.363636  0.000000      10 t-inv F
  0.363636 -0.454545  0.000000      10 t-inv F
 -0.454545  0.090909  0.000000      10 t-inv F
 -0.545455  0.454545  0.000000      11 t-inv F
  0.090909 -0.545455  0.000000      11 t-inv F
 -0.454545  0.545455  0.000000      11 t-inv F
  0.545455 -0.090909  0.000000      11 t-inv F
 -0.090909 -0.454545  0.000000      11 t-inv F
 -0.363636  0.181818  0.000000      12 t-inv F
  0.181818 -0.363636  0.000000      12 t-inv F
 -0.181818  0.363636  0.000000      12 t-inv F
  0.363636 -0.181818  0.000000      12 t-inv F
 -0.181818 -0.181818  0.000000      12 t-inv F
 -0.454545  0.272727  0.000000      13 t-inv F
  0.181818 -0.454545  0.000000      13 t-inv F
 -0.272727  0.454545  0.000000      13 t-inv F
  0.454545 -0.181818  0.000000      13 t-inv F
 -0.181818 -0.272727  0.000000      13 t-inv F
 -0.181818  0.454545  0.000000      13 t-inv F
 -0.272727 -0.181818  0.000000      13 t-inv F
  0.454545 -0.272727  0.000000      13 t-inv F
  0.181818  0.272727  0.000000      13 t-inv F
  0.272727 -0.454545  0.000000      13 t-inv F
 -0.454545  0.181818  0.000000      13 t-inv F
 -0.545455  0.363636  0.000000      14 t-inv F
  0.181818 -0.545455  0.000000      14 t-inv F
 -0.363636  0.545455  0.000000      14 t-inv F
  0.545455 -0.181818  0.000000      14 t-inv F
 -0.181818 -0.363636  0.000000      14 t-inv F
 -0.181818  0.545455  0.000000      14 t-inv F
 -0.363636 -0.181818  0.000000      14 t-inv F
  0.545455 -0.363636  0.000000      14 t-inv F
  0.181818  0.363636  0.000000      14 t-inv F
  0.363636 -0.545455  0.000000      14 t-inv F
 -0.545455  0.181818  0.000000      14 t-inv F
 -0.545455  0.272727  0.000000      15 t-inv F
  0.272727 -0.545455  0.000000      15 t-inv F
 -0.272727  0.545455  0.000000      15 t-inv F
  0.545455 -0.272727  0.000000      15 t-inv F
 -0.272727 -0.272727  0.000000      15 t-inv F
 -0.636364  0.363636  0.000000      16 t-inv F
  0.272727 -0.636364  0.000000      16 t-inv F
 -0.363636  0.636364  0.000000      16 t-inv F
  0.636364 -0.272727  0.000000      16 t-inv F
 -0.272727 -0.363636  0.000000      16 t-inv F
 -0.090909  0.090909  0.166667      18 t-inv F
  0.000000 -0.090909  0.166667      18 t-inv F
 -0.000000  0.090909  0.166667      18 t-inv F
 -0.090909 -0.000000  0.166667      18 t-inv F
  0.090909 -0.090909  0.166667      18 t-inv F
 -0.181818  0.181818  0.166667      19 t-inv F
  0.000000 -0.181818  0.166667      19 t-inv F
 -0.000000  0.181818  0.166667      19 t-inv F
 -0.181818 -0.000000  0.166667      19 t-inv F
  0.181818 -0.181818  0.166667      19 t-inv F
 -0.272727  0.272727  0.166667      20 t-inv F
  0.000000 -0.272727  0.166667      20 t-inv F
 -0.000000  0.272727  0.166667      20 t-inv F
 -0.272727 -0.000000  0.166667      20 t-inv F
  0.272727 -0.272727  0.166667      20 t-inv F
 -0.363636  0.363636  0.166667      21 t-inv F
  0.000000 -0.363636  0.166667      21 t-inv F
 -0.000000  0.363636  0.166667      21 t-inv F
 -0.363636 -0.000000  0.166667      21 t-inv F
  0.363636 -0.363636  0.166667      21 t-inv F
 -0.454545  0.454545  0.166667      22 t-inv F
  0.000000 -0.454545  0.166667      22 t-inv F
 -0.000000  0.454545  0.166667      22 t-inv F
 -0.454545 -0.000000  0.166667      22 t-inv F
  0.454545 -0.454545  0.166667      22 t-inv F
 -0.181818  0.090909  0.166667      23 t-inv F
  0.090909 -0.181818  0.166667      23 t-inv F
 -0.090909  0.181818  0.166667      23 t-inv F
  0.181818 -0.090909  0.166667      23 t-inv F
 -0.090909 -0.090909  0.166667      23 t-inv F
 -0.272727  0.181818  0.166667      24 t-inv F
  0.090909 -0.272727  0.166667      24 t-inv F
 -0.181818  0.272727  0.166667      24 t-inv F
  0.272727 -0.090909  0.166667      24 t-inv F
 -0.090909 -0.181818  0.166667      24 t-inv F
 -0.090909  0.272727  0.166667      24 t-inv F
 -0.181818 -0.090909  0.166667      24 t-inv F
  0.272727 -0.181818  0.166667      24 t-inv F
  0.090909  0.181818  0.166667      24 t-inv F
  0.181818 -0.272727  0.166667      24 t-inv F
 -0.272727  0.090909  0.166667      24 t-inv F
 -0.363636  0.272727  0.166667      25 t-inv F
  0.090909 -0.363636  0.166667      25 t-inv F
 -0.272727  0.363636  0.166667      25 t-inv F
  0.363636 -0.090909  0.166667      25 t-inv F
 -0.090909 -0.272727  0.166667      25 t-inv F
 -0.090909  0.363636  0.166667      25 t-inv F
 -0.272727 -0.090909  0.166667      25 t-inv F
  0.363636 -0.272727  0.166667      25 t-inv F
  0.090909  0.272727  0.166667      25 t-inv F
  0.272727 -0.363636  0.166667      25 t-inv F
 -0.363636  0.090909  0.166667      25 t-inv F
 -0.454545  0.363636  0.166667      26 t-inv F
  0.090909 -0.454545  0.166667      26 t-inv F
 -0.363636  0.454545  0.166667      26 t-inv F
  0.454545 -0.090909  0.166667      26 t-inv F
 -0.090909 -0.363636  0.166667      26 t-inv F
 -0.090909  0.454545  0.166667      26 t-inv F
 -0.363636 -0.090909  0.166667      26 t-inv F
  0.454545 -0.363636  0.166667      26 t-inv F
  0.090909  0.363636  0.166667      26 t-inv F
  0.363636 -0.454545  0.166667      26 t-inv F
 -0.454545  0.090909  0.166667      26 t-inv F
 -0.545455  0.454545  0.166667      27 t-inv F
  0.090909 -0.545455  0.166667      27 t-inv F
 -0.454545  0.545455  0.166667      27 t-inv F
  0.545455 -0.090909  0.166667      27 t-inv F
 -0.090909 -0.454545  0.166667      27 t-inv F
 -0.363636  0.181818  0.166667      28 t-inv F
  0.181818 -0.363636  0.166667      28 t-inv F
 -0.181818  0.363636  0.166667      28 t-inv F
  0.363636 -0.181818  0.166667      28 t-inv F
 -0.181818 -0.181818  0.166667      28 t-inv F
 -0.454545  0.272727  0.166667      29 t-inv F
  0.181818 -0.454545  0.166667      29 t-inv F
 -0.272727  0.454545  0.166667      29 t-inv F
  0.454545 -0.181818  0.166667      29 t-inv F
 -0.181818 -0.272727  0.166667      29 t-inv F
 -0.181818  0.454545  0.166667      29 t-inv F
 -0.272727 -0.181818  0.166667      29 t-inv F
  0.454545 -0.272727  0.166667      29 t-inv F
  0.181818  0.272727  0.166667      29 t-inv F
  0.272727 -0.454545  0.166667      29 t-inv F
 -0.454545  0.181818  0.166667      29 t-inv F
 -0.545455  0.363636  0.166667      30 t-inv F
  0.181818 -0.545455  0.166667      30 t-inv F
 -0.363636  0.545455  0.166667      30 t-inv F
  0.545455 -0.181818  0.166667      30 t-inv F
 -0.181818 -0.363636  0.166667      30 t-inv F
 -0.181818  0.545455  0.166667      30 t-inv F
 -0.363636 -0.181818  0.166667      30 t-inv F
  0.545455 -0.363636  0.166667      30 t-inv F
  0.181818  0.363636  0.166667      30 t-inv F
  0.363636 -0.545455  0.166667      30 t-inv F
 -0.545455  0.181818  0.166667      30 t-inv F
 -0.545455  0.272727  0.166667      31 t-inv F
  0.272727 -0.545455  0.166667      31 t-inv F
 -0.272727  0.545455  0.166667      31 t-inv F
  0.545455 -0.272727  0.166667      31 t-inv F
 -0.272727 -0.272727  0.166667      31 t-inv F
 -0.636364  0.363636  0.166667      32 t-inv F
  0.272727 -0.636364  0.166667      32 t-inv F
 -0.363636  0.636364  0.166667      32 t-inv F
  0.636364 -0.272727  0.166667      32 t-inv F
 -0.272727 -0.363636  0.166667      32 t-inv F
 -0.090909  0.090909  0.333333      34 t-inv F
  0.000000 -0.090909  0.333333      34 t-inv F
 -0.000000  0.090909  0.333333      34 t-inv F
 -0.090909 -0.000000  0.333333      34 t-inv F
  0.090909 -0.090909  0.333333      34 t-inv F
 -0.181818  0.181818  0.333333      35 t-inv F
  0.000000 -0.181818  0.333333      35 t-inv F
 -0.000000  0.181818  0.333333      35 t-inv F
 -0.181818 -0.000000  0.333333      35 t-inv F
  0.181818 -0.181818  0.333333      35 t-inv F
 -0.272727  0.272727  0.333333      36 t-inv F
  0.000000 -0.272727  0.333333      36 t-inv F
 -0.000000  0.272727  0.333333      36 t-inv F
 -0.272727 -0.000000  0.333333      36 t-inv F
  0.272727 -0.272727  0.333333      36 t-inv F
 -0.363636  0.363636  0.333333      37 t-inv F
  0.000000 -0.363636  0.333333      37 t-inv F
 -0.000000  0.363636  0.333333      37 t-inv F
 -0.363636 -0.000000  0.333333      37 t-inv F
  0.363636 -0.363636  0.333333      37 t-inv F
 -0.454545  0.454545  0.333333      38 t-inv F
  0.000000 -0.454545  0.333333      38 t-inv F
 -0.000000  0.454545  0.333333      38 t-inv F
 -0.454545 -0.000000  0.333333      38 t-inv F
  0.454545 -0.454545  0.333333      38 t-inv F
 -0.181818  0.090909  0.333333      39 t-inv F
  0.090909 -0.181818  0.333333      39 t-inv F
 -0.090909  0.181818  0.333333      39 t-inv F
  0.181818 -0.090909  0.333333      39 t-inv F
 -0.090909 -0.090909  0.333333      39 t-inv F
 -0.272727  0.181818  0.333333      40 t-inv F
  0.090909 -0.272727  0.333333      40 t-inv F
 -0.181818  0.272727  0.333333      40 t-inv F
  0.272727 -0.090909  0.333333      40 t-inv F
 -0.090909 -0.181818  0.333333      40 t-inv F
 -0.090909  0.272727  0.333333      40 t-inv F
 -0.181818 -0.090909  0.333333      40 t-inv F
  0.272727 -0.181818  0.333333      40 t-inv F
  0.090909  0.181818  0.333333      40 t-inv F
  0.181818 -0.272727  0.333333      40 t-inv F
 -0.272727  0.090909  0.333333      40 t-inv F
 -0.363636  0.272727  0.333333      41 t-inv F
  0.090909 -0.363636  0.333333      41 t-inv F
 -0.272727  0.363636  0.333333      41 t-inv F
  0.363636 -0.090909  0.333333      41 t-inv F
 -0.090909 -0.272727  0.333333      41 t-inv F
 -0.090909  0.363636  0.333333      41 t-inv F
 -0.272727 -0.090909  0.333333      41 t-inv F
  0.363636 -0.272727  0.333333      41 t-inv F
  0.090909  0.272727  0.333333      41 t-inv F
  0.272727 -0.363636  0.333333      41 t-inv F
 -0.363636  0.090909  0.333333      41 t-inv F
 -0.454545  0.363636  0.333333      42 t-inv F
  0.090909 -0.454545  0.333333      42 t-inv F
 -0.363636  0.454545  0.333333      42 t-inv F
  0.454545 -0.090909  0.333333      42 t-inv F
 -0.090909 -0.363636  0.333333      42 t-inv F
 -0.090909  0.454545  0.333333      42 t-inv F
 -0.363636 -0.090909  0.333333      42 t-inv F
  0.454545 -0.363636  0.333333      42 t-inv F
  0.090909  0.363636  0.333333      42 t-inv F
  0.363636 -0.454545  0.333333      42 t-inv F
 -0.454545  0.090909  0.333333      42 t-inv F
 -0.545455  0.454545  0.333333      43 t-inv F
  0.090909 -0.545455  0.333333      43 t-inv F
 -0.454545  0.545455  0.333333      43 t-inv F
  0.545455 -0.090909  0.333333      43 t-inv F
 -0.090909 -0.454545  0.333333      43 t-inv F
 -0.363636  0.181818  0.333333      44 t-inv F
  0.181818 -0.363636  0.333333      44 t-inv F
 -0.181818  0.363636  0.333333      44 t-inv F
  0.363636 -0.181818  0.333333      44 t-inv F
 -0.181818 -0.181818  0.333333      44 t-inv F
 -0.454545  0.272727  0.333333      45 t-inv F
  0.181818 -0.454545  0.333333      45 t-inv F
 -0.272727  0.454545  0.333333      45 t-inv F
  0.454545 -0.181818  0.333333      45 t-inv F
 -0.181818 -0.272727  0.333333      45 t-inv F
 -0.181818  0.454545  0.333333      45 t-inv F
 -0.272727 -0.181818  0.333333      45 t-inv F
  0.454545 -0.272727  0.333333      45 t-inv F
  0.181818  0.272727  0.333333      45 t-inv F
  0.272727 -0.454545  0.333333      45 t-inv F
 -0.454545  0.181818  0.333333      45 t-inv F
 -0.545455  0.363636  0.333333      46 t-inv F
  0.181818 -0.545455  0.333333      46 t-inv F
 -0.363636  0.545455  0.333333      46 t-inv F
  0.545455 -0.181818  0.333333      46 t-inv F
 -0.181818 -0.363636  0.333333      46 t-inv F
 -0.181818  0.545455  0.333333      46 t-inv F
 -0.363636 -0.181818  0.333333      46 t-inv F
  0.545455 -0.363636  0.333333      46 t-inv F
  0.181818  0.363636  0.333333      46 t-inv F
  0.363636 -0.545455  0.333333      46 t-inv F
 -0.545455  0.181818  0.333333      46 t-inv F
 -0.545455  0.272727  0.333333      47 t-inv F
  0.272727 -0.545455  0.333333      47 t-inv F
 -0.272727  0.545455  0.333333      47 t-inv F
  0.545455 -0.272727  0.333333      47 t-inv F
 -0.272727 -0.272727  0.333333      47 t-inv F
 -0.636364  0.363636  0.333333      48 t-inv F
  0.272727 -0.636364  0.333333      48 t-inv F
 -0.363636  0.636364  0.333333      48 t-inv F
  0.636364 -0.272727  0.333333      48 t-inv F
 -0.272727 -0.363636  0.333333      48 t-inv F
 -0.090909  0.090909  0.500000      50 t-inv F
  0.000000 -0.090909  0.500000      50 t-inv F
 -0.000000  0.090909  0.500000      50 t-inv F
 -0.090909 -0.000000  0.500000      50 t-inv F
  0.090909 -0.090909  0.500000      50 t-inv F
 -0.181818  0.181818  0.500000      51 t-inv F
  0.000000 -0.181818  0.500000      51 t-inv F
 -0.000000  0.181818  0.500000      51 t-inv F
 -0.181818 -0.000000  0.500000      51 t-inv F
  0.181818 -0.181818  0.500000      51 t-inv F
 -0.272727  0.272727  0.500000      52 t-inv F
  0.000000 -0.272727  0.500000      52 t-inv F
 -0.000000  0.272727  0.500000      52 t-inv F
 -0.272727 -0.000000  0.500000      52 t-inv F
  0.272727 -0.272727  0.500000      52 t-inv F
 -0.363636  0.363636  0.500000      53 t-inv F
  0.000000 -0.363636  0.500000      53 t-inv F
 -0.000000  0.363636  0.500000      53 t-inv F
 -0.363636 -0.000000  0.500000      53 t-inv F
  0.363636 -0.363636  0.500000      53 t-inv F
 -0.454545  0.454545  0.500000      54 t-inv F
  0.000000 -0.454545  0.500000      54 t-inv F
 -0.000000  0.454545  0.500000      54 t-inv F
 -0.454545 -0.000000  0.500000      54 t-inv F
  0.454545 -0.454545  0.500000      54 t-inv F
 -0.181818  0.090909  0.500000      55 t-inv F
  0.090909 -0.181818  0.500000      55 t-inv F
 -0.090909  0.181818  0.500000      55 t-inv F
  0.181818 -0.090909  0.500000      55 t-inv F
 -0.090909 -0.090909  0.500000      55 t-inv F
 -0.272727  0.181818  0.500000      56 t-inv F
  0.090909 -0.272727  0.500000      56 t-inv F
 -0.181818  0.272727  0.500000      56 t-inv F
  0.272727 -0.090909  0.500000      56 t-inv F
 -0.090909 -0.181818  0.500000      56 t-inv F
 -0.090909  0.272727  0.500000      56 t-inv F
 -0.181818 -0.090909  0.500000      56 t-inv F
  0.272727 -0.181818  0.500000      56 t-inv F
  0.090909  0.181818  0.500000      56 t-inv F
  0.181818 -0.272727  0.500000      56 t-inv F
 -0.272727  0.090909  0.500000      56 t-inv F
 -0.363636  0.272727  0.500000      57 t-inv F
  0.090909 -0.363636  0.500000      57 t-inv F
 -0.272727  0.363636  0.500000      57 t-inv F
  0.363636 -0.090909  0.500000      57 t-inv F
 -0.090909 -0.272727  0.500000      57 t-inv F
 -0.090909  0.363636  0.500000      57 t-inv F
 -0.272727 -0.090909  0.500000      57 t-inv F
  0.363636 -0.272727  0.500000      57 t-inv F
  0.090909  0.272727  0.500000      57 t-inv F
  0.272727 -0.363636  0.500000      57 t-inv F
 -0.363636  0.090909  0.500000      57 t-inv F
 -0.454545  0.363636  0.500000      58 t-inv F
  0.090909 -0.454545  0.500000      58 t-inv F
 -0.363636  0.454545  0.500000      58 t-inv F
  0.454545 -0.090909  0.500000      58 t-inv F
 -0.090909 -0.363636  0.500000      58 t-inv F
 -0.090909  0.454545  0.500000      58 t-inv F
 -0.363636 -0.090909  0.500000      58 t-inv F
  0.454545 -0.363636  0.500000      58 t-inv F
  0.090909  0.363636  0.500000      58 t-inv F
  0.363636 -0.454545  0.500000      58 t-inv F
 -0.454545  0.090909  0.500000      58 t-inv F
 -0.545455  0.454545  0.500000      59 t-inv F
  0.090909 -0.545455  0.500000      59 t-inv F
 -0.454545  0.545455  0.500000      59 t-inv F
  0.545455 -0.090909  0.500000      59 t-inv F
 -0.090909 -0.454545  0.500000      59 t-inv F
 -0.363636  0.181818  0.500000      60 t-inv F
  0.181818 -0.363636  0.500000      60 t-inv F
 -0.181818  0.363636  0.500000      60 t-inv F
  0.363636 -0.181818  0.500000      60 t-inv F
 -0.181818 -0.181818  0.500000      60 t-inv F
 -0.454545  0.272727  0.500000      61 t-inv F
  0.181818 -0.454545  0.500000      61 t-inv F
 -0.272727  0.454545  0.500000      61 t-inv F
  0.454545 -0.181818  0.500000      61 t-inv F
 -0.181818 -0.272727  0.500000      61 t-inv F
 -0.181818  0.454545  0.500000      61 t-inv F
 -0.272727 -0.181818  0.500000      61 t-inv F
  0.454545 -0.272727  0.500000      61 t-inv F
  0.181818  0.272727  0.500000      61 t-inv F
  0.272727 -0.454545  0.500000      61 t-inv F
 -0.454545  0.181818  0.500000      61 t-inv F
 -0.545455  0.363636  0.500000      62 t-inv F
  0.181818 -0.545455  0.500000      62 t-inv F
 -0.363636  0.545455  0.500000      62 t-inv F
  0.545455 -0.181818  0.500000      62 t-inv F
 -0.181818 -0.363636  0.500000      62 t-inv F
 -0.181818  0.545455  0.500000      62 t-inv F
 -0.363636 -0.181818  0.500000      62 t-inv F
  0.545455 -0.363636  0.500000      62 t-inv F
  0.181818  0.363636  0.500000      62 t-inv F
  0.363636 -0.545455  0.500000      62 t-inv F
 -0.545455  0.181818  0.500000      62 t-inv F
 -0.545455  0.272727  0.500000      63 t-inv F
  0.272727 -0.545455  0.500000      63 t-inv F
 -0.272727  0.545455  0.500000      63 t-inv F
  0.545455 -0.272727  0.500000      63 t-inv F
 -0.272727 -0.272727  0.500000      63 t-inv F
 -0.636364  0.363636  0.500000      64 t-inv F
  0.272727 -0.636364  0.500000      64 t-inv F
 -0.363636  0.636364  0.500000      64 t-inv F
  0.636364 -0.272727  0.500000      64 t-inv F
 -0.272727 -0.363636  0.500000      64 t-inv F
 -0.000000 -0.000000 -0.166667      17 t-inv T
 -0.090909 -0.000000 -0.166667      18 t-inv T
  0.090909 -0.090909 -0.166667      18 t-inv T
 -0.000000  0.090909 -0.166667      18 t-inv T
  0.000000 -0.090909 -0.166667      18 t-inv T
  0.090909  0.000000 -0.166667      18 t-inv T
 -0.090909  0.090909 -0.166667      18 t-inv T
 -0.181818 -0.000000 -0.166667      19 t-inv T
  0.181818 -0.181818 -0.166667      19 t-inv T
 -0.000000  0.181818 -0.166667      19 t-inv T
  0.000000 -0.181818 -0.166667      19 t-inv T
  0.181818  0.000000 -0.166667      19 t-inv T
 -0.181818  0.181818 -0.166667      19 t-inv T
 -0.272727 -0.000000 -0.166667      20 t-inv T
  0.272727 -0.272727 -0.166667      20 t-inv T
 -0.000000  0.272727 -0.166667      20 t-inv T
  0.000000 -0.272727 -0.166667      20 t-inv T
  0.272727  0.000000 -0.166667      20 t-inv T
 -0.272727  0.272727 -0.166667      20 t-inv T
 -0.363636 -0.000000 -0.166667      21 t-inv T
  0.363636 -0.363636 -0.166667      21 t-inv T
 -0.000000  0.363636 -0.166667      21 t-inv T
  0.000000 -0.363636 -0.166667      21 t-inv T
  0.363636  0.000000 -0.166667      21 t-inv T
 -0.363636  0.363636 -0.166667      21 t-inv T
 -0.454545 -0.000000 -0.166667      22 t-inv T
  0.454545 -0.454545 -0.166667      22 t-inv T
 -0.000000  0.454545 -0.166667      22 t-inv T
  0.000000 -0.454545 -0.166667      22 t-inv T
  0.454545  0.000000 -0.166667      22 t-inv T
 -0.454545  0.454545 -0.166667      22 t-inv T
 -0.090909 -0.090909 -0.166667      23 t-inv T
  0.181818 -0.090909 -0.166667      23 t-inv T
 -0.090909  0.181818 -0.166667      23 t-inv T
  0.090909 -0.181818 -0.166667      23 t-inv T
 -0.181818  0.090909 -0.166667      23 t-inv T
  0.090909  0.090909 -0.166667      23 t-inv T
 -0.181818 -0.090909 -0.166667      24 t-inv T
  0.272727 -0.181818 -0.166667      24 t-inv T
 -0.090909  0.272727 -0.166667      24 t-inv T
  0.181818 -0.272727 -0.166667      24 t-inv T
 -0.272727  0.090909 -0.166667      24 t-inv T
  0.090909  0.181818 -0.166667      24 t-inv T
  0.090909 -0.272727 -0.166667      24 t-inv T
  0.181818  0.090909 -0.166667      24 t-inv T
 -0.272727  0.181818 -0.166667      24 t-inv T
 -0.090909 -0.181818 -0.166667      24 t-inv T
 -0.181818  0.272727 -0.166667      24 t-inv T
  0.272727 -0.090909 -0.166667      24 t-inv T
 -0.272727 -0.090909 -0.166667      25 t-inv T
  0.363636 -0.272727 -0.166667      25 t-inv T
 -0.090909  0.363636 -0.166667      25 t-inv T
  0.272727 -0.363636 -0.166667      25 t-inv T
 -0.363636  0.090909 -0.166667      25 t-inv T
  0.090909  0.272727 -0.166667      25 t-inv T
  0.090909 -0.363636 -0.166667      25 t-inv T
  0.272727  0.090909 -0.166667      25 t-inv T
 -0.363636  0.272727 -0.166667      25 t-inv T
 -0.090909 -0.272727 -0.166667      25 t-inv T
 -0.272727  0.363636 -0.166667      25 t-inv T
  0.363636 -0.090909 -0.166667      25 t-inv T
 -0.363636 -0.090909 -0.166667      26 t-inv T
  0.454545 -0.363636 -0.166667      26 t-inv T
 -0.090909  0.454545 -0.166667      26 t-inv T
  0.363636 -0.454545 -0.166667      26 t-inv T
 -0.454545  0.090909 -0.166667      26 t-inv T
  0.090909  0.363636 -0.166667      26 t-inv T
  0.090909 -0.454545 -0.166667      26 t-inv T
  0.363636  0.090909 -0.166667      26 t-inv T
 -0.454545  0.363636 -0.166667      26 t-inv T
 -0.090909 -0.363636 -0.166667      26 t-inv T
 -0.363636  0.454545 -0.166667      26 t-inv T
  0.454545 -0.090909 -0.166667      26 t-inv T
 -0.454545 -0.090909 -0.166667      27 t-inv T
  0.545455 -0.454545 -0.166667      27 t-inv T
 -0.090909  0.545455 -0.166667      27 t-inv T
  0.454545 -0.545455 -0.166667      27 t-inv T
 -0.545455  0.090909 -0.166667      27 t-inv T
  0.090909  0.454545 -0.166667      27 t-inv T
 -0.181818 -0.181818 -0.166667      28 t-inv T
  0.363636 -0.181818 -0.166667      28 t-inv T
 -0.181818  0.363636 -0.166667      28 t-inv T
  0.181818 -0.363636 -0.166667      28 t-inv T
 -0.363636  0.181818 -0.166667      28 t-inv T
  0.181818  0.181818 -0.166667      28 t-inv T
 -0.272727 -0.181818 -0.166667      29 t-inv T
  0.454545 -0.272727 -0.166667      29 t-inv T
 -0.181818  0.454545 -0.166667      29 t-inv T
  0.272727 -0.454545 -0.166667      29 t-inv T
 -0.454545  0.181818 -0.166667      29 t-inv T
  0.181818  0.272727 -0.166667      29 t-inv T
  0.181818 -0.454545 -0.166667      29 t-inv T
  0.272727  0.181818 -0.166667      29 t-inv T
 -0.454545  0.272727 -0.166667      29 t-inv T
 -0.181818 -0.272727 -0.166667      29 t-inv T
 -0.272727  0.454545 -0.166667      29 t-inv T
  0.454545 -0.181818 -0.166667      29 t-inv T
 -0.363636 -0.181818 -0.166667      30 t-inv T
  0.545455 -0.363636 -0.166667      30 t-inv T
 -0.181818  0.545455 -0.166667      30 t-inv T
  0.363636 -0.545455 -0.166667      30 t-inv T
 -0.545455  0.181818 -0.166667      30 t-inv T
  0.181818  0.363636 -0.166667      30 t-inv T
  0.181818 -0.545455 -0.166667      30 t-inv T
  0.363636  0.181818 -0.166667      30 t-inv T
 -0.545455  0.363636 -0.166667      30 t-inv T
 -0.181818 -0.363636 -0.166667      30 t-inv T
 -0.363636  0.545455 -0.166667      30 t-inv T
  0.545455 -0.181818 -0.166667      30 t-inv T
 -0.272727 -0.272727 -0.166667      31 t-inv T
  0.545455 -0.272727 -0.166667      31 t-inv T
 -0.272727  0.545455 -0.166667      31 t-inv T
  0.272727 -0.545455 -0.166667      31 t-inv T
 -0.545455  0.272727 -0.166667      31 t-inv T
  0.272727  0.272727 -0.166667      31 t-inv T
 -0.363636 -0.272727 -0.166667      32 t-inv T
  0.636364 -0.363636 -0.166667      32 t-inv T
 -0.272727  0.636364 -0.166667      32 t-inv T
  0.363636 -0.636364 -0.166667      32 t-inv T
 -0.636364  0.272727 -0.166667      32 t-inv T
  0.272727  0.363636 -0.166667      32 t-inv T
 -0.000000 -0.000000 -0.333333      33 t-inv T
 -0.090909 -0.000000 -0.333333      34 t-inv T
  0.090909 -0.090909 -0.333333      34 t-inv T
 -0.000000  0.090909 -0.333333      34 t-inv T
  0.000000 -0.090909 -0.333333      34 t-inv T
  0.090909  0.000000 -0.333333      34 t-inv T
 -0.090909  0.090909 -0.333333      34 t-inv T
 -0.181818 -0.000000 -0.333333      35 t-inv T
  0.181818 -0.181818 -0.333333      35 t-inv T
 -0.000000  0.181818 -0.333333      35 t-inv T
  0.000000 -0.181818 -0.333333      35 t-inv T
  0.181818  0.000000 -0.333333      35 t-inv T
 -0.181818  0.181818 -0.333333      35 t-inv T
 -0.272727 -0.000000 -0.333333      36 t-inv T
  0.272727 -0.272727 -0.333333      36 t-inv T
 -0.000000  0.272727 -0.333333      36 t-inv T
  0.000000 -0.272727 -0.333333      36 t-inv T
  0.272727  0.000000 -0.333333      36 t-inv T
 -0.272727  0.272727 -0.333333      36 t-inv T
 -0.363636 -0.000000 -0.333333      37 t-inv T
  0.363636 -0.363636 -0.333333      37 t-inv T
 -0.000000  0.363636 -0.333333      37 t-inv T
  0.000000 -0.363636 -0.333333      37 t-inv T
  0.363636  0.000000 -0.333333      37 t-inv T
 -0.363636  0.363636 -0.333333      37 t-inv T
 -0.454545 -0.000000 -0.333333      38 t-inv T
  0.454545 -0.454545 -0.333333      38 t-inv T
 -0.000000  0.454545 -0.333333      38 t-inv T
  0.000000 -0.454545 -0.333333      38 t-inv T
  0.454545  0.000000 -0.333333      38 t-inv T
 -0.454545  0.454545 -0.333333      38 t-inv T
 -0.090909 -0.090909 -0.333333      39 t-inv T
  0.181818 -0.090909 -0.333333      39 t-inv T
 -0.090909  0.181818 -0.333333      39 t-inv T
  0.090909 -0.181818 -0.333333      39 t-inv T
 -0.181818  0.090909 -0.333333      39 t-inv T
  0.090909  0.090909 -0.333333      39 t-inv T
 -0.181818 -0.090909 -0.333333      40 t-inv T
  0.272727 -0.181818 -0.333333      40 t-inv T
 -0.090909  0.272727 -0.333333      40 t-inv T
  0.181818 -0.272727 -0.333333      40 t-inv T
 -0.272727  0.090909 -0.333333      40 t-inv T
  0.090909  0.181818 -0.333333      40 t-inv T
  0.090909 -0.272727 -0.333333      40 t-inv T
  0.181818  0.090909 -0.333333      40 t-inv T
 -0.272727  0.181818 -0.333333      40 t-inv T
 -0.090909 -0.181818 -0.333333      40 t-inv T
 -0.181818  0.272727 -0.333333      40 t-inv T
  0.272727 -0.090909 -0.333333      40 t-inv T
 -0.272727 -0.090909 -0.333333      41 t-inv T
  0.363636 -0.272727 -0.333333      41 t-inv T
 -0.090909  0.363636 -0.333333      41 t-inv T
  0.272727 -0.363636 -0.333333      41 t-inv T
 -0.363636  0.090909 -0.333333      41 t-inv T
  0.090909  0.272727 -0.333333      41 t-inv T
  0.090909 -0.363636 -0.333333      41 t-inv T
  0.272727  0.090909 -0.333333      41 t-inv T
 -0.363636  0.272727 -0.333333      41 t-inv T
 -0.090909 -0.272727 -0.333333      41 t-inv T
 -0.272727  0.363636 -0.333333      41 t-inv T
  0.363636 -0.090909 -0.333333      41 t-inv T
 -0.363636 -0.090909 -0.333333      42 t-inv T
  0.454545 -0.363636 -0.333333      42 t-inv T
 -0.090909  0.454545 -0.333333      42 t-inv T
  0.363636 -0.454545 -0.333333      42 t-inv T
 -0.454545  0.090909 -0.333333      42 t-inv T
  0.090909  0.363636 -0.333333      42 t-inv T
  0.090909 -0.454545 -0.333333      42 t-inv T
  0.363636  0.090909 -0.333333      42 t-inv T
 -0.454545  0.363636 -0.333333      42 t-inv T
 -0.090909 -0.363636 -0.333333      42 t-inv T
 -0.363636  0.454545 -0.333333      42 t-inv T
  0.454545 -0.090909 -0.333333      42 t-inv T
 -0.454545 -0.090909 -0.333333      43 t-inv T
  0.545455 -0.454545 -0.333333      43 t-inv T
 -0.090909  0.545455 -0.333333      43 t-inv T
  0.454545 -0.545455 -0.333333      43 t-inv T
 -0.545455  0.090909 -0.333333      43 t-inv T
  0.090909  0.454545 -0.333333      43 t-inv T
 -0.181818 -0.181818 -0.333333      44 t-inv T
  0.363636 -0.181818 -0.333333      44 t-inv T
 -0.181818  0.363636 -0.333333      44 t-inv T
  0.181818 -0.363636 -0.333333      44 t-inv T
 -0.363636  0.181818 -0.333333      44 t-inv T
  0.181818  0.181818 -0.333333      44 t-inv T
 -0.272727 -0.181818 -0.333333      45 t-inv T
  0.454545 -0.272727 -0.333333      45 t-inv T
 -0.181818  0.454545 -0.333333      45 t-inv T
  0.272727 -0.454545 -0.333333      45 t-inv T
 -0.454545  0.181818 -0.333333      45 t-inv T
  0.181818  0.272727 -0.333333      45 t-inv T
  0.181818 -0.454545 -0.333333      45 t-inv T
  0.272727  0.181818 -0.333333      45 t-inv T
 -0.454545  0.272727 -0.333333      45 t-inv T
 -0.181818 -0.272727 -0.333333      45 t-inv T
 -0.272727  0.454545 -0.333333      45 t-inv T
  0.454545 -0.181818 -0.333333      45 t-inv T
 -0.363636 -0.181818 -0.333333      46 t-inv T
  0.545455 -0.363636 -0.333333      46 t-inv T
 -0.181818  0.545455 -0.333333      46 t-inv T
  0.363636 -0.545455 -0.333333      46 t-inv T
 -0.545455  0.181818 -0.333333      46 t-inv T
  0.181818  0.363636 -0.333333      46 t-inv T
  0.181818 -0.545455 -0.333333      46 t-inv T
  0.363636  0.181818 -0.333333      46 t-inv T
 -0.545455  0.363636 -0.333333      46 t-inv T
 -0.181818 -0.363636 -0.333333      46 t-inv T
 -0.363636  0.545455 -0.333333      46 t-inv T
  0.545455 -0.181818 -0.333333      46 t-inv T
 -0.272727 -0.272727 -0.333333      47 t-inv T
  0.545455 -0.272727 -0.333333      47 t-inv T
 -0.272727  0.545455 -0.333333      47 t-inv T
  0.272727 -0.545455 -0.333333      47 t-inv T
 -0.545455  0.272727 -0.333333      47 t-inv T
  0.272727  0.272727 -0.333333      47 t-inv T
 -0.363636 -0.272727 -0.333333      48 t-inv T
  0.636364 -0.363636 -0.333333      48 t-inv T
 -0.272727  0.636364 -0.333333      48 t-inv T
  0.363636 -0.636364 -0.333333      48 t-inv T
 -0.636364  0.272727 -0.333333      48 t-inv T
  0.272727  0.363636 -0.333333      48 t-inv T

 ----------------------------------------------------------------------------- 
|                                                                             |
|           W    W    AA    RRRRR   N    N  II  N    N   GGGG   !!!           |
|           W    W   A  A   R    R  NN   N  II  NN   N  G    G  !!!           |
|           W    W  A    A  R    R  N N  N  II  N N  N  G       !!!           |
|           W WW W  AAAAAA  RRRRR   N  N N  II  N  N N  G  GGG   !            |
|           WW  WW  A    A  R   R   N   NN  II  N   NN  G    G                |
|           W    W  A    A  R    R  N    N  II  N    N   GGGG   !!!           |
|                                                                             |
|      The number of bands has been changed from the values supplied          |
|      in the INCAR file. This is a result of running the parallel version.   |
|      The orbitals not found in the WAVECAR file will be initialized with    |
|      random numbers, which is usually adequate. For correlated              |
|      calculations, however, you should redo the groundstate calculation.    |
|      I found NBANDS    =       38  now  NBANDS  =      40                   |
|                                                                             |
 ----------------------------------------------------------------------------- 



--------------------------------------------------------------------------------------------------------




 Dimension of arrays:
   k-points           NKPTS =     64   k-points in BZ     NKDIM =     64   number of bands    NBANDS=     40
   number of dos      NEDOS =    301   number of ions     NIONS =      4
   non local maximal  LDIM  =      6   non local SUM 2l+1 LMDIM =     18
   total plane-waves  NPLWV =  32928
   max r-space proj   IRMAX =      1   max aug-charges    IRDMAX=  19948
   dimension x,y,z NGX =    28 NGY =   28 NGZ =   42
   dimension x,y,z NGXF=    56 NGYF=   56 NGZF=   84
   support grid    NGXF=    56 NGYF=   56 NGZF=   84
   ions per type =               2   2
 NGX,Y,Z   is equivalent  to a cutoff of  14.13, 14.13, 13.21 a.u.
 NGXF,Y,Z  is equivalent  to a cutoff of  28.25, 28.25, 26.42 a.u.


 I would recommend the setting:
   dimension x,y,z NGX =    26 NGY =   26 NGZ =   42
 SYSTEM =  unknown system                          
 POSCAR =  Generated by cif2cell 1.1.0.  :  S.C.Abr

 Startparameter for this run:
   NWRITE =      2    write-flag & timer
   PREC   = accura    normal or accurate (medium, high low for compatibility)
   ISTART =      1    job   : 0-new  1-cont  2-samecut
   ICHARG =      0    charge: 1-file 2-atom 10-const
   ISPIN  =      1    spin polarized calculation?
   LNONCOLLINEAR =      F non collinear calculations
   LSORBIT =      F    spin-orbit coupling
   INIWAV =      1    electr: 0-lowe 1-rand  2-diag
   LASPH  =      F    aspherical Exc in radial PAW
   METAGGA=      F    non-selfconsistent MetaGGA calc.

 Electronic Relaxation 1
   ENCUT  =  600.0 eV  44.10 Ry    6.64 a.u.   6.58  6.58 10.56*2*pi/ulx,y,z
   ENINI  =  600.0     initial cutoff
   ENAUG  =  605.4 eV  augmentation charge cutoff
   NELM   =     60;   NELMIN=  4; NELMDL=  0     # of ELM steps 
   EDIFF  = 0.5E-05   stopping-criterion for ELM
   LREAL  =      F    real-space projection
   NLSPLINE    = F    spline interpolate recip. space projectors
   LCOMPAT=      F    compatible to vasp.4.4
   GGA_COMPAT  = T    GGA compatible to vasp.4.4-vasp.4.6
   LMAXPAW     = -100 max onsite density
   LMAXMIX     =    2 max onsite mixed and CHGCAR
   VOSKOWN=      0    Vosko Wilk Nusair interpolation
   ROPT   =    0.00000   0.00000
 Ionic relaxation
   EDIFFG = 0.5E-04   stopping-criterion for IOM
   NSW    =      1    number of steps for IOM
   NBLOCK =      1;   KBLOCK =      1    inner block; outer block 
   IBRION =      8    ionic relax: 0-MD 1-quasi-New 2-CG
   NFREE  =      0    steps in history (QN), initial steepest desc. (CG)
   ISIF   =      3    stress and relaxation
   IWAVPR =     11    prediction:  0-non 1-charg 2-wave 3-comb
   ISYM   =      2    0-nonsym 1-usesym 2-fastsym
   LCORR  =      T    Harris-Foulkes like correction to forces

   POTIM  = 0.2000    time-step for ionic-motion
   TEIN   =    0.0    initial temperature
   TEBEG  =    0.0;   TEEND  =   0.0 temperature during run
   SMASS  =  -3.00    Nose mass-parameter (am)
   estimated Nose-frequenzy (Omega)   =  0.10E-29 period in steps =****** mass=  -0.248E-27a.u.
   SCALEE = 1.0000    scale energy and forces
   NPACO  =    256;   APACO  = 16.0  distance and # of slots for P.C.
   PSTRESS=    0.0 pullay stress

  Mass of Ions in am
   POMASS =  65.39 16.00
  Ionic Valenz
   ZVAL   =  12.00  6.00
  Atomic Wigner-Seitz radii
   RWIGS  =  -1.00 -1.00
  virtual crystal weights 
   VCA    =   1.00  1.00
   NELECT =      36.0000    total number of electrons
   NUPDOWN=      -1.0000    fix difference up-down

 DOS related values:
   EMIN   =  10.00;   EMAX   =-10.00  energy-range for DOS
   EFERMI =   0.00
   ISMEAR =     0;   SIGMA  =   0.05  broadening in eV -4-tet -1-fermi 0-gaus

 Electronic relaxation 2 (details)
   IALGO  =     38    algorithm
   LDIAG  =      T    sub-space diagonalisation (order eigenvalues)
   LSUBROT=      T    optimize rotation matrix (better conditioning)
   TURBO    =      0    0=normal 1=particle mesh
   IRESTART =      0    0=no restart 2=restart with 2 vectors
   NREBOOT  =      0    no. of reboots
   NMIN     =      0    reboot dimension
   EREF     =   0.00    reference energy to select bands
   IMIX   =      4    mixing-type and parameters
     AMIX     =   0.40;   BMIX     =  1.00
     AMIX_MAG =   1.60;   BMIX_MAG =  1.00
     AMIN     =   0.10
     WC   =   100.;   INIMIX=   1;  MIXPRE=   1;  MAXMIX= -45

 Intra band minimization:
   WEIMIN = 0.0010     energy-eigenvalue tresh-hold
   EBREAK =  0.31E-07  absolut break condition
   DEPER  =   0.30     relativ break condition  

   TIME   =   0.40     timestep for ELM

  volume/ion in A,a.u.               =      12.42        83.83
  Fermi-wavevector in a.u.,A,eV,Ry     =   1.470325  2.778511 29.413815  2.161854
  Thomas-Fermi vector in A             =   2.585595

 Write flags
   LWAVE  =      T    write WAVECAR
   LCHARG =      T    write CHGCAR
   LVTOT  =      F    write LOCPOT, total local potential
   LVHAR  =      F    write LOCPOT, Hartree potential only
   LELF   =      F    write electronic localiz. function (ELF)
   LORBIT =      0    0 simple, 1 ext, 2 COOP (PROOUT)


 Dipole corrections
   LMONO  =      F    monopole corrections only (constant potential shift)
   LDIPOL =      F    correct potential (dipole corrections)
   IDIPOL =      0    1-x, 2-y, 3-z, 4-all directions 
   EPSILON=  1.0000000 bulk dielectric constant

 Exchange correlation treatment:
   GGA     =    --    GGA type
   LEXCH   =     8    internal setting for exchange type
   VOSKOWN=      0    Vosko Wilk Nusair interpolation
   LHFCALC =     F    Hartree Fock is set to
   LHFONE  =     F    Hartree Fock one center treatment
   AEXX    =    0.0000 exact exchange contribution

 Linear response parameters
   LEPSILON=     T    determine dielectric tensor
   LRPA    =     F    only Hartree local field effects (RPA)
   LNABLA  =     F    use nabla operator in PAW spheres
   LVEL    =     F    velocity operator in full k-point grid
   LINTERFAST=   F  fast interpolation
   KINTER  =     0    interpolate to denser k-point grid
   CSHIFT  =0.1000    complex shift for real part using Kramers Kronig
   OMEGAMAX=  -1.0    maximum frequency
   DEG_THRESHOLD= 0.2000000E-02 threshold for treating states as degnerate
   RTIME   =    0.100 relaxation time in fs

 Orbital magnetization related:
   ORBITALMAG=     F  switch on orbital magnetization
   LCHIMAG   =     F  perturbation theory with respect to B field
   DQ        =  0.001000  dq finite difference perturbation B field



--------------------------------------------------------------------------------------------------------


 linear response using symmetry
 charge density and potential will be updated during run
 non-spin polarized calculation
 Variant of blocked Davidson
 Davidson routine will perform the subspace rotation
 perform sub-space diagonalisation
    after iterative eigenvector-optimisation
 modified Broyden-mixing scheme, WC =      100.0
 initial mixing is a Kerker type mixing with AMIX =  0.4000 and BMIX =      1.0000
 Hartree-type preconditioning will be used
 using additional bands           22
 reciprocal scheme for non local part
 use partial core corrections
 calculate Harris-corrections to forces   (improved forces if not selfconsistent)
 use gradient corrections 
 use of overlap-Matrix (Vanderbilt PP)
 Gauss-broadening in eV      SIGMA  =   0.05


--------------------------------------------------------------------------------------------------------


  energy-cutoff  :      600.00
  volume of cell :       49.69
      direct lattice vectors                 reciprocal lattice vectors
     2.853604050 -1.647529067  0.000000000     0.350434041  0.000000000  0.000000000
     0.000000000  3.295058133  0.000000000     0.175217021  0.303484782 -0.000000000
     0.000000000  0.000000000  5.284824189    -0.000000000  0.000000000  0.189221053

  length of vectors
     3.295058133  3.295058133  5.284824189     0.350434041  0.350434041  0.189221053



 old parameters found on file WAVECAR:
  energy-cutoff  :      600.00
  volume of cell :       49.69
      direct lattice vectors                 reciprocal lattice vectors
     2.853604050 -1.647529067  0.000000000     0.350434041 -0.000000000 -0.000000000
     0.000000000  3.295058133 -0.000000000     0.175217021  0.303484782  0.000000000
     0.000000000 -0.000000000  5.284824189     0.000000000  0.000000000  0.189221053

  length of vectors


 k-points in units of 2pi/SCALE and weight: Generated by cif2cell 1.1.0. k-space res
   0.00000000  0.00000000  0.00000000       0.001
   0.10353733  0.00000000  0.00000000       0.008
   0.20707466  0.00000000  0.00000000       0.008
   0.31061199  0.00000000  0.00000000       0.008
   0.41414932  0.00000000  0.00000000       0.008
   0.51768665  0.00000000  0.00000000       0.008
   0.15530600  0.08966596  0.00000000       0.008
   0.25884333  0.08966596  0.00000000       0.017
   0.36238066  0.08966596  0.00000000       0.017
   0.46591799  0.08966596  0.00000000       0.017
   0.56945532  0.08966596  0.00000000       0.008
   0.31061199  0.17933192  0.00000000       0.008
   0.41414932  0.17933192  0.00000000       0.017
   0.51768665  0.17933192  0.00000000       0.017
   0.46591799  0.26899788  0.00000000       0.008
   0.56945532  0.26899788  0.00000000       0.008
   0.00000000  0.00000000  0.10249474       0.003
   0.10353733  0.00000000  0.10249474       0.017
   0.20707466  0.00000000  0.10249474       0.017
   0.31061199  0.00000000  0.10249474       0.017
   0.41414932  0.00000000  0.10249474       0.017
   0.51768665  0.00000000  0.10249474       0.017
   0.15530600  0.08966596  0.10249474       0.017
   0.25884333  0.08966596  0.10249474       0.033
   0.36238066  0.08966596  0.10249474       0.033
   0.46591799  0.08966596  0.10249474       0.033
   0.56945532  0.08966596  0.10249474       0.017
   0.31061199  0.17933192  0.10249474       0.017
   0.41414932  0.17933192  0.10249474       0.033
   0.51768665  0.17933192  0.10249474       0.033
   0.46591799  0.26899788  0.10249474       0.017
   0.56945532  0.26899788  0.10249474       0.017
   0.00000000  0.00000000  0.20498947       0.003
   0.10353733  0.00000000  0.20498947       0.017
   0.20707466  0.00000000  0.20498947       0.017
   0.31061199  0.00000000  0.20498947       0.017
   0.41414932  0.00000000  0.20498947       0.017
   0.51768665  0.00000000  0.20498947       0.017
   0.15530600  0.08966596  0.20498947       0.017
   0.25884333  0.08966596  0.20498947       0.033
   0.36238066  0.08966596  0.20498947       0.033
   0.46591799  0.08966596  0.20498947       0.033
   0.56945532  0.08966596  0.20498947       0.017
   0.31061199  0.17933192  0.20498947       0.017
   0.41414932  0.17933192  0.20498947       0.033
   0.51768665  0.17933192  0.20498947       0.033
   0.46591799  0.26899788  0.20498947       0.017
   0.56945532  0.26899788  0.20498947       0.017
   0.00000000  0.00000000  0.30748421       0.001
   0.10353733  0.00000000  0.30748421       0.008
   0.20707466  0.00000000  0.30748421       0.008
   0.31061199  0.00000000  0.30748421       0.008
   0.41414932  0.00000000  0.30748421       0.008
   0.51768665  0.00000000  0.30748421       0.008
   0.15530600  0.08966596  0.30748421       0.008
   0.25884333  0.08966596  0.30748421       0.017
   0.36238066  0.08966596  0.30748421       0.017
   0.46591799  0.08966596  0.30748421       0.017
   0.56945532  0.08966596  0.30748421       0.008
   0.31061199  0.17933192  0.30748421       0.008
   0.41414932  0.17933192  0.30748421       0.017
   0.51768665  0.17933192  0.30748421       0.017
   0.46591799  0.26899788  0.30748421       0.008
   0.56945532  0.26899788  0.30748421       0.008

 k-points in reciprocal lattice and weights: Generated by cif2cell 1.1.0. k-space res
   0.00000000  0.00000000  0.00000000       0.001
   0.09090909  0.00000000  0.00000000       0.008
   0.18181818  0.00000000  0.00000000       0.008
   0.27272727  0.00000000  0.00000000       0.008
   0.36363636  0.00000000  0.00000000       0.008
   0.45454545  0.00000000  0.00000000       0.008
   0.09090909  0.09090909  0.00000000       0.008
   0.18181818  0.09090909  0.00000000       0.017
   0.27272727  0.09090909  0.00000000       0.017
   0.36363636  0.09090909  0.00000000       0.017
   0.45454545  0.09090909  0.00000000       0.008
   0.18181818  0.18181818  0.00000000       0.008
   0.27272727  0.18181818  0.00000000       0.017
   0.36363636  0.18181818  0.00000000       0.017
   0.27272727  0.27272727  0.00000000       0.008
   0.36363636  0.27272727  0.00000000       0.008
   0.00000000  0.00000000  0.16666667       0.003
   0.09090909  0.00000000  0.16666667       0.017
   0.18181818  0.00000000  0.16666667       0.017
   0.27272727  0.00000000  0.16666667       0.017
   0.36363636  0.00000000  0.16666667       0.017
   0.45454545  0.00000000  0.16666667       0.017
   0.09090909  0.09090909  0.16666667       0.017
   0.18181818  0.09090909  0.16666667       0.033
   0.27272727  0.09090909  0.16666667       0.033
   0.36363636  0.09090909  0.16666667       0.033
   0.45454545  0.09090909  0.16666667       0.017
   0.18181818  0.18181818  0.16666667       0.017
   0.27272727  0.18181818  0.16666667       0.033
   0.36363636  0.18181818  0.16666667       0.033
   0.27272727  0.27272727  0.16666667       0.017
   0.36363636  0.27272727  0.16666667       0.017
   0.00000000  0.00000000  0.33333333       0.003
   0.09090909  0.00000000  0.33333333       0.017
   0.18181818  0.00000000  0.33333333       0.017
   0.27272727  0.00000000  0.33333333       0.017
   0.36363636  0.00000000  0.33333333       0.017
   0.45454545  0.00000000  0.33333333       0.017
   0.09090909  0.09090909  0.33333333       0.017
   0.18181818  0.09090909  0.33333333       0.033
   0.27272727  0.09090909  0.33333333       0.033
   0.36363636  0.09090909  0.33333333       0.033
   0.45454545  0.09090909  0.33333333       0.017
   0.18181818  0.18181818  0.33333333       0.017
   0.27272727  0.18181818  0.33333333       0.033
   0.36363636  0.18181818  0.33333333       0.033
   0.27272727  0.27272727  0.33333333       0.017
   0.36363636  0.27272727  0.33333333       0.017
   0.00000000  0.00000000  0.50000000       0.001
   0.09090909  0.00000000  0.50000000       0.008
   0.18181818  0.00000000  0.50000000       0.008
   0.27272727  0.00000000  0.50000000       0.008
   0.36363636  0.00000000  0.50000000       0.008
   0.45454545  0.00000000  0.50000000       0.008
   0.09090909  0.09090909  0.50000000       0.008
   0.18181818  0.09090909  0.50000000       0.017
   0.27272727  0.09090909  0.50000000       0.017
   0.36363636  0.09090909  0.50000000       0.017
   0.45454545  0.09090909  0.50000000       0.008
   0.18181818  0.18181818  0.50000000       0.008
   0.27272727  0.18181818  0.50000000       0.017
   0.36363636  0.18181818  0.50000000       0.017
   0.27272727  0.27272727  0.50000000       0.008
   0.36363636  0.27272727  0.50000000       0.008

 position of ions in fractional coordinates (direct lattice) 
   0.33333333  0.66666667  0.00090035
   0.66666667  0.33333333  0.50090035
   0.33333333  0.66666667  0.38159965
   0.66666667  0.33333333  0.88159965

 position of ions in cartesian coordinates  (Angst):
   0.95120135  1.64752907  0.00475819
   1.90240270  0.00000000  2.64717029
   0.95120135  1.64752907  2.01668706
   1.90240270  0.00000000  4.65909915



--------------------------------------------------------------------------------------------------------


 k-point  1 :   0.0000 0.0000 0.0000  plane waves:    1689
 k-point  2 :   0.0909 0.0000 0.0000  plane waves:    1681
 k-point  3 :   0.1818 0.0000 0.0000  plane waves:    1673
 k-point  4 :   0.2727 0.0000 0.0000  plane waves:    1665
 k-point  5 :   0.3636 0.0000 0.0000  plane waves:    1652
 k-point  6 :   0.4545 0.0000 0.0000  plane waves:    1642
 k-point  7 :   0.0909 0.0909 0.0000  plane waves:    1671
 k-point  8 :   0.1818 0.0909 0.0000  plane waves:    1667
 k-point  9 :   0.2727 0.0909 0.0000  plane waves:    1665
 k-point 10 :   0.3636 0.0909 0.0000  plane waves:    1651
 k-point 11 :   0.4545 0.0909 0.0000  plane waves:    1636
 k-point 12 :   0.1818 0.1818 0.0000  plane waves:    1655
 k-point 13 :   0.2727 0.1818 0.0000  plane waves:    1665
 k-point 14 :   0.3636 0.1818 0.0000  plane waves:    1656
 k-point 15 :   0.2727 0.2727 0.0000  plane waves:    1659
 k-point 16 :   0.3636 0.2727 0.0000  plane waves:    1654
 k-point 17 :   0.0000 0.0000 0.1667  plane waves:    1701
 k-point 18 :   0.0909 0.0000 0.1667  plane waves:    1686
 k-point 19 :   0.1818 0.0000 0.1667  plane waves:    1667
 k-point 20 :   0.2727 0.0000 0.1667  plane waves:    1664
 k-point 21 :   0.3636 0.0000 0.1667  plane waves:    1653
 k-point 22 :   0.4545 0.0000 0.1667  plane waves:    1652
 k-point 23 :   0.0909 0.0909 0.1667  plane waves:    1671
 k-point 24 :   0.1818 0.0909 0.1667  plane waves:    1665
 k-point 25 :   0.2727 0.0909 0.1667  plane waves:    1660
 k-point 26 :   0.3636 0.0909 0.1667  plane waves:    1653
 k-point 27 :   0.4545 0.0909 0.1667  plane waves:    1645
 k-point 28 :   0.1818 0.1818 0.1667  plane waves:    1657
 k-point 29 :   0.2727 0.1818 0.1667  plane waves:    1656
 k-point 30 :   0.3636 0.1818 0.1667  plane waves:    1653
 k-point 31 :   0.2727 0.2727 0.1667  plane waves:    1662
 k-point 32 :   0.3636 0.2727 0.1667  plane waves:    1653
 k-point 33 :   0.0000 0.0000 0.3333  plane waves:    1677
 k-point 34 :   0.0909 0.0000 0.3333  plane waves:    1671
 k-point 35 :   0.1818 0.0000 0.3333  plane waves:    1672
 k-point 36 :   0.2727 0.0000 0.3333  plane waves:    1661
 k-point 37 :   0.3636 0.0000 0.3333  plane waves:    1649
 k-point 38 :   0.4545 0.0000 0.3333  plane waves:    1650
 k-point 39 :   0.0909 0.0909 0.3333  plane waves:    1661
 k-point 40 :   0.1818 0.0909 0.3333  plane waves:    1659
 k-point 41 :   0.2727 0.0909 0.3333  plane waves:    1657
 k-point 42 :   0.3636 0.0909 0.3333  plane waves:    1652
 k-point 43 :   0.4545 0.0909 0.3333  plane waves:    1655
 k-point 44 :   0.1818 0.1818 0.3333  plane waves:    1662
 k-point 45 :   0.2727 0.1818 0.3333  plane waves:    1658
 k-point 46 :   0.3636 0.1818 0.3333  plane waves:    1655
 k-point 47 :   0.2727 0.2727 0.3333  plane waves:    1652
 k-point 48 :   0.3636 0.2727 0.3333  plane waves:    1656
 k-point 49 :   0.0000 0.0000 0.5000  plane waves:    1654
 k-point 50 :   0.0909 0.0000 0.5000  plane waves:    1656
 k-point 51 :   0.1818 0.0000 0.5000  plane waves:    1660
 k-point 52 :   0.2727 0.0000 0.5000  plane waves:    1656
 k-point 53 :   0.3636 0.0000 0.5000  plane waves:    1660
 k-point 54 :   0.4545 0.0000 0.5000  plane waves:    1654
 k-point 55 :   0.0909 0.0909 0.5000  plane waves:    1658
 k-point 56 :   0.1818 0.0909 0.5000  plane waves:    1658
 k-point 57 :   0.2727 0.0909 0.5000  plane waves:    1658
 k-point 58 :   0.3636 0.0909 0.5000  plane waves:    1650
 k-point 59 :   0.4545 0.0909 0.5000  plane waves:    1656
 k-point 60 :   0.1818 0.1818 0.5000  plane waves:    1656
 k-point 61 :   0.2727 0.1818 0.5000  plane waves:    1666
 k-point 62 :   0.3636 0.1818 0.5000  plane waves:    1658
 k-point 63 :   0.2727 0.2727 0.5000  plane waves:    1650
 k-point 64 :   0.3636 0.2727 0.5000  plane waves:    1644

 maximum and minimum number of plane-waves per node :      1701     1636

 maximum number of plane-waves:      1701
 maximum index in each direction: 
   IXMAX=    6   IYMAX=    6   IZMAX=   10
   IXMIN=   -7   IYMIN=   -6   IZMIN=  -11

 NGX is ok and might be reduce to  28
 NGY is ok and might be reduce to  26
 WARNING: aliasing errors must be expected set NGZ to  44 to avoid them
 aliasing errors are usually negligible using standard VASP settings
 and one can safely disregard these warnings

 serial   3D FFT for wavefunctions
 parallel 3D FFT for charge:
    minimum data exchange during FFTs selected (reduces bandwidth)


 total amount of memory used by VASP on root node    87032. kBytes
========================================================================

   base      :      30000. kBytes
   nonl-proj :      31517. kBytes
   fftplans  :       2392. kBytes
   grid      :       5080. kBytes
   one-center:         62. kBytes
   wavefun   :      17981. kBytes

 Broyden mixing: mesh for mixing (old mesh)
   NGX = 13   NGY = 13   NGZ = 21
  (NGX  = 56   NGY  = 56   NGZ  = 84)
  gives a total of   3549 points

 charge density for first step will be calculated from the start-wavefunctions


--------------------------------------------------------------------------------------------------------


 Maximum index for augmentation-charges         4779 (set IRDMAX)


--------------------------------------------------------------------------------------------------------


 initial charge from wavefunction
 First call to EWALD:  gamma=   0.482
 Maximum number of real-space cells 3x 3x 2
 Maximum number of reciprocal cells 3x 3x 4

 FEWALD executed in parallel
    FEWALD:  cpu time    0.00: real time    0.00


----------------------------------------- Iteration    1(   1)  ---------------------------------------


    POTLOK:  cpu time    0.06: real time    0.06
    SETDIJ:  cpu time    0.01: real time    0.01
     EDDAV:  cpu time    4.76: real time    4.88
       DOS:  cpu time    0.00: real time    0.00
    CHARGE:  cpu time    0.32: real time    0.32
    MIXING:  cpu time    0.00: real time    0.00
    --------------------------------------------
      LOOP:  cpu time    5.15: real time    5.27

 eigenvalue-minimisations  :  4112
 total energy-change (2. order) :-0.1786190E+02  (-0.1693643E-06)
 number of electron      36.0000016 magnetization 
 augmentation part       17.4765797 magnetization 

 Broyden mixing:
  rms(total) = 0.22114E-03    rms(broyden)= 0.22113E-03
  rms(prec ) = 0.26828E-03
[...]
     29       0.3391      0.00000
     30       0.5579      0.00000
     31      -0.7349      0.00000
     32       0.0122      0.00000
     33      -0.2349      0.00000
     34      -0.1251      0.00000
     35      -1.2698      0.00000
     36       0.6319      0.00000
     37       0.7850      0.00000
     38       0.2016      0.00000
     39       0.1680      0.00000
     40       0.1298      0.00000

 k-point  84 :      -0.4545    0.1818    0.3333
  band No.  band energies     occupation 
      1       0.0398      0.00000
      2       0.0256      0.00000
      3      -0.0705      0.00000
      4       0.3512      0.00000
      5       0.1009      0.00000
      6      -0.0308      0.00000
      7      -0.1550      0.00000
      8      -0.0466      0.00000
      9       0.0549      0.00000
     10       0.0460      0.00000
     11      -0.0591      0.00000
     12       0.1172      0.00000
     13       0.2064      0.00000
     14      -0.2826      0.00000
     15      -0.2443      0.00000
     16       0.2309      0.00000
     17      -0.5729      0.00000
     18       0.3010      0.00000
     19      -0.4209      0.00000
     20       0.9132      0.00000
     21       1.0491      0.00000
     22      -0.7907      0.00000
     23      -0.6184      0.00000
     24      -0.0179      0.00000
     25      -0.2138      0.00000
     26      -0.5037      0.00000
     27       0.1277      0.00000
     28       1.0540      0.00000
     29       0.8651      0.00000
     30      -0.2529      0.00000
     31      -0.7484      0.00000
     32       0.3720      0.00000
     33      -0.7997      0.00000
     34       0.5119      0.00000
     35      -0.9588      0.00000
     36      -0.7812      0.00000
     37       1.2337      0.00000
     38       0.0436      0.00000
     39       0.4594      0.00000
     40      -0.1858      0.00000


------------------------ aborting loop because EDIFF is reached ----------------------------------------


 FEWALD executed in parallel
    FORLOC:  cpu time    0.00: real time    0.00
    FORNL :  cpu time    1.30: real time    1.30
    STRESS:  cpu time    2.66: real time    2.66
    FORCOR:  cpu time    0.07: real time    0.07
 FEWALD executed in parallel
    FORLOC:  cpu time    0.01: real time    0.01
    FORNL :  cpu time    1.29: real time    1.30
    STRESS:  cpu time    2.66: real time    2.66
    FORCOR:  cpu time    0.07: real time    0.07
 FEWALD executed in parallel
    FORLOC:  cpu time    0.00: real time    0.00
    FORNL :  cpu time    1.30: real time    1.30
    STRESS:  cpu time    2.66: real time    2.66
    FORCOR:  cpu time    0.07: real time    0.07
 FEWALD executed in parallel
    FORLOC:  cpu time    0.00: real time    0.00
    FORNL :  cpu time    1.30: real time    1.30
    STRESS:  cpu time    2.66: real time    2.67
    FORCOR:  cpu time    0.06: real time    0.06

 INTERNAL STRAIN TENSOR  FOR ION    3  DIRECTION 3   (eV/Angst):
 -----------------------------------------------------------------------------
     3.75585 -0.00000  0.00000
    -0.00000  3.75585 -0.00000
    -0.00000  0.00000 -7.74537


 POSITION                   FORCE-CONSTANT FOR ION    3 DIRECTION 3 (eV/Angst/Angst)
 -----------------------------------------------------------------------------------
      0.95120      1.64753      0.00476         0.000000     -0.000000      4.253289
      1.90240      0.00000      2.64717        -0.000000      0.000000      1.521801
      0.95120      1.64753      2.01669        -0.000000      0.000000    -10.406166
      1.90240      0.00000      4.65910        -0.000000      0.000000      4.631077
 -----------------------------------------------------------------------------------
    total drift:                               -0.000000     -0.000000     -0.000000


 BORN EFFECTIVE CHARGE FOR ION    3 DIRECTION 3 :  -0.000   0.000  -2.184
                   rigid augmentation           :   0.000   0.000  -0.624
                   ionic contribution           :   0.000   0.000   6.000
                   Berry contribution           :  -0.000   0.000  -7.560


--------------------------------------------------------------------------------------------------------


  LATTYP: Found a hexagonal cell.
 ALAT       =     3.2950581330
 C/A-ratio  =     1.6038637181
  
  Lattice vectors:
  
 A1 = (   2.8536040501,  -1.6475290665,   0.0000000000)
 A2 = (   0.0000000000,   3.2950581330,   0.0000000000)
 A3 = (   0.0000000000,   0.0000000000,   5.2848241887)


Analysis of symmetry for initial positions (statically):
=====================================================================
 Subroutine PRICEL returns:
 Original cell was already a primitive cell.
 

 Routine SETGRP: Setting up the symmetry group for a 
 hexagonal supercell.


 Subroutine GETGRP returns: Found 12 space group operations
 (whereof  6 operations were pure point group operations)
 out of a pool of 24 trial point group operations.


The static configuration has the point symmetry C_3v.
 The point group associated with its full space group is C_6v.


Analysis of symmetry for dynamics (positions and initial velocities):
=====================================================================
 Subroutine PRICEL returns:
 Original cell was already a primitive cell.
 

 Routine SETGRP: Setting up the symmetry group for a 
 hexagonal supercell.


 Subroutine GETGRP returns: Found 12 space group operations
 (whereof  6 operations were pure point group operations)
 out of a pool of 24 trial point group operations.


The dynamic configuration has the point symmetry C_3v.
 The point group associated with its full space group is C_6v.


--------------------------------------------------------------------------------------------------------




 MACROSCOPIC STATIC DIELECTRIC TENSOR (including local field effects in DFT)
 ------------------------------------------------------
           5.738971     0.000000     0.000000
           0.000000     5.738971     0.000000
          -0.000000     0.000000     5.673464
 ------------------------------------------------------


 PIEZOELECTRIC TENSOR  for field in x, y, z        (e  Angst)
          XX          YY          ZZ          XY          YZ          ZX
  --------------------------------------------------------------------------------
  x    -0.00021    -0.00004     0.00001    -0.00000    -0.00000     1.24679
  y    -0.00008    -0.00020     0.00000    -0.00000     1.24695    -0.00000
  z     1.19427     1.19427    -2.41918    -0.00000    -0.00000    -0.00000

 PIEZOELECTRIC TENSOR  for field in x, y, z        (C/m^2)
          XX          YY          ZZ          XY          YZ          ZX
  --------------------------------------------------------------------------------
  x    -0.00000    -0.00000     0.00000     0.00000     0.00000     0.40201
  y     0.00000     0.00000     0.00000    -0.00000     0.40202     0.00000
  z     0.38506     0.38506    -0.77999     0.00000     0.00000    -0.00000

 BORN EFFECTIVE CHARGES (in e, cummulative output)
 -------------------------------------------------
 ion    1
    1     2.13469    -0.00000    -0.00003
    2     0.00005     2.13469    -0.00003
    3     0.00000     0.00000     2.17943
 ion    2
    1     2.13475    -0.00000    -0.00004
    2    -0.00005     2.13469    -0.00003
    3    -0.00000     0.00000     2.17943
 ion    3
    1    -2.14024     0.00000     0.00004
    2     0.00002    -2.14027     0.00004
    3    -0.00000     0.00000    -2.18486
 ion    4
    1    -2.14027    -0.00000     0.00005
    2    -0.00002    -2.14027     0.00004
    3     0.00000     0.00000    -2.18486

 INTERNAL STRAIN TENSOR FOR ION    1 for displacements in x,y,z  (eV/Angst):
          X           Y           Z          XY          YZ          ZX
  --------------------------------------------------------------------------------
  x    -5.94493     5.94493     0.00000    -0.00000    -0.00000    -3.78895
  y     0.00000     0.00000     0.00000     5.94493    -3.63378    -0.00000
  z    -3.74159    -3.74159     7.78924     0.00000     0.00000     0.00000

 INTERNAL STRAIN TENSOR FOR ION    2 for displacements in x,y,z  (eV/Angst):
          X           Y           Z          XY          YZ          ZX
  --------------------------------------------------------------------------------
  x     5.94493    -5.94493     0.00000     0.00000     0.00000    -3.78895
  y     0.00000     0.00000     0.00000    -5.94493    -3.63378     0.00000
  z    -3.74159    -3.74159     7.78924     0.00000     0.00000    -0.00000

 INTERNAL STRAIN TENSOR FOR ION    3 for displacements in x,y,z  (eV/Angst):
          X           Y           Z          XY          YZ          ZX
  --------------------------------------------------------------------------------
  x    -7.13774     7.13774    -0.00000    -0.00000     0.00000     3.69214
  y     0.00000     0.00000    -0.00000     7.13774     3.93661     0.00000
  z     3.75585     3.75585    -7.74537     0.00000    -0.00000    -0.00000

 INTERNAL STRAIN TENSOR FOR ION    4 for displacements in x,y,z  (eV/Angst):
          X           Y           Z          XY          YZ          ZX
  --------------------------------------------------------------------------------
  x     7.13774    -7.13774     0.00000     0.00000     0.00000     3.69214
  y     0.00000     0.00000     0.00000    -7.13774     3.93661     0.00000
  z     3.75585     3.75585    -7.74537     0.00000     0.00000     0.00000


--------------------------------------------------------------------------------------------------------



 SECOND DERIVATIVES (NOT SYMMETRIZED)
 ------------------------------------
               1X          1Y          1Z          2X          2Y          2Z          3X          3Y          3Z          4X          4Y          4Z 
  1X    -6.844974    0.000000    0.000000    0.282465   -0.000000   -0.000000    0.126259   -0.000000    0.000000    6.436251    0.000000   -0.000000
  1Y     0.000000   -6.844974    0.000000    0.000000    0.282465    0.000000    0.000000    0.126259    0.000000   -0.000000    6.436251    0.000000
  1Z     0.000000    0.000000  -10.532588    0.000000    0.000000    4.681018   -0.000000    0.000000    4.294309   -0.000000   -0.000000    1.557262
  2X     0.282465    0.000000    0.000000   -6.844974    0.000000   -0.000000    6.436251    0.000000    0.000000    0.126259    0.000000   -0.000000
  2Y    -0.000000    0.282465    0.000000    0.000000   -6.844974    0.000000    0.000000    6.436251    0.000000    0.000000    0.126259    0.000000
  2Z    -0.000000    0.000000    4.681018    0.000000   -0.000000  -10.532588    0.000000    0.000000    1.557262    0.000000    0.000000    4.294309
  3X     0.115394    0.000000    0.000000    6.424565    0.000000    0.000000   -7.398421   -0.000000    0.000000    0.858462   -0.000000    0.000000
  3Y     0.000000    0.115394    0.000000    0.000000    6.424565    0.000000    0.000000   -7.398421   -0.000000   -0.000000    0.858462    0.000000
  3Z     0.000000    0.000000    4.253289    0.000000    0.000000    1.521801    0.000000    0.000000  -10.406166   -0.000000    0.000000    4.631077
  4X     6.424565    0.000000    0.000000    0.115394   -0.000000    0.000000    0.858462   -0.000000    0.000000   -7.398421    0.000000   -0.000000
  4Y     0.000000    6.424565    0.000000    0.000000    0.115394    0.000000    0.000000    0.858462    0.000000   -0.000000   -7.398421    0.000000
  4Z     0.000000    0.000000    1.521801    0.000000    0.000000    4.253289    0.000000   -0.000000    4.631077   -0.000000    0.000000  -10.406166


 Eigenvectors and eigenvalues of the dynamical matrix
 ----------------------------------------------------


   1 f  =   15.235790 THz    95.729293 2PiTHz  508.211241 cm-1    63.010186 meV
             X         Y         Z           dx          dy          dz
      0.951201  1.647529  0.004758     0.000000   -0.000000    0.082778  
      1.902403  0.000000  2.647170    -0.000000    0.000000   -0.082778  
      0.951201  1.647529  2.016687     0.000000   -0.000000   -0.702245  
      1.902403  0.000000  4.659099    -0.000000    0.000000    0.702245  

   2 f  =   12.053268 THz    75.732915 2PiTHz  402.053725 cm-1    49.848327 meV
             X         Y         Z           dx          dy          dz
      0.951201  1.647529  0.004758    -0.251926    0.077749   -0.000000  
      1.902403  0.000000  2.647170     0.251926   -0.077749   -0.000000  
      0.951201  1.647529  2.016687    -0.626938    0.193485    0.000000  
      1.902403  0.000000  4.659099     0.626938   -0.193485    0.000000  

   3 f  =   12.053268 THz    75.732915 2PiTHz  402.053725 cm-1    49.848327 meV
             X         Y         Z           dx          dy          dz
      0.951201  1.647529  0.004758    -0.077749   -0.251926   -0.000000  
      1.902403  0.000000  2.647170     0.077749    0.251926   -0.000000  
      0.951201  1.647529  2.016687    -0.193485   -0.626938    0.000000  
      1.902403  0.000000  4.659099     0.193485    0.626938    0.000000  

   4 f  =   11.154634 THz    70.086633 2PiTHz  372.078531 cm-1    46.131875 meV
             X         Y         Z           dx          dy          dz
      0.951201  1.647529  0.004758    -0.293837   -0.110563   -0.000000  
      1.902403  0.000000  2.647170    -0.293837   -0.110563   -0.000000  
      0.951201  1.647529  2.016687     0.592999    0.223130    0.000000  
      1.902403  0.000000  4.659099     0.592999    0.223130    0.000000  

   5 f  =   11.154634 THz    70.086633 2PiTHz  372.078531 cm-1    46.131875 meV
             X         Y         Z           dx          dy          dz
      0.951201  1.647529  0.004758     0.110563   -0.293837    0.000000  
      1.902403  0.000000  2.647170     0.110563   -0.293837    0.000000  
      0.951201  1.647529  2.016687    -0.223130    0.592999   -0.000000  
      1.902403  0.000000  4.659099    -0.223130    0.592999   -0.000000  

   6 f  =   10.492187 THz    65.924354 2PiTHz  349.981672 cm-1    43.392213 meV
             X         Y         Z           dx          dy          dz
      0.951201  1.647529  0.004758    -0.000000   -0.000000    0.315178  
      1.902403  0.000000  2.647170    -0.000000   -0.000000    0.315178  
      0.951201  1.647529  2.016687     0.000000    0.000000   -0.632979  
      1.902403  0.000000  4.659099     0.000000    0.000000   -0.632979  

   7 f  =    7.377447 THz    46.353864 2PiTHz  246.085122 cm-1    30.510677 meV
             X         Y         Z           dx          dy          dz
      0.951201  1.647529  0.004758     0.000000   -0.000000   -0.702245  
      1.902403  0.000000  2.647170     0.000000    0.000000    0.702245  
      0.951201  1.647529  2.016687    -0.000000   -0.000000   -0.082778  
      1.902403  0.000000  4.659099    -0.000000    0.000000    0.082778  

   8 f  =    2.735332 THz    17.186597 2PiTHz   91.240848 cm-1    11.312427 meV
             X         Y         Z           dx          dy          dz
      0.951201  1.647529  0.004758    -0.090900    0.649789   -0.000000  
      1.902403  0.000000  2.647170     0.090900   -0.649789   -0.000000  
      0.951201  1.647529  2.016687     0.036527   -0.261108   -0.000000  
      1.902403  0.000000  4.659099    -0.036527    0.261108   -0.000000  

   9 f  =    2.735332 THz    17.186597 2PiTHz   91.240848 cm-1    11.312427 meV
             X         Y         Z           dx          dy          dz
      0.951201  1.647529  0.004758    -0.649789   -0.090900    0.000000  
      1.902403  0.000000  2.647170     0.649789    0.090900    0.000000  
      0.951201  1.647529  2.016687     0.261108    0.036527    0.000000  
      1.902403  0.000000  4.659099    -0.261108   -0.036527    0.000000  

  10 f/i=    0.007638 THz     0.047988 2PiTHz    0.254761 cm-1     0.031586 meV
             X         Y         Z           dx          dy          dz
      0.951201  1.647529  0.004758    -0.580133   -0.254717    0.000000  
      1.902403  0.000000  2.647170    -0.580133   -0.254717    0.000000  
      0.951201  1.647529  2.016687    -0.287462   -0.126215    0.000000  
      1.902403  0.000000  4.659099    -0.287462   -0.126215    0.000000  

  11 f/i=    0.007638 THz     0.047988 2PiTHz    0.254761 cm-1     0.031586 meV
             X         Y         Z           dx          dy          dz
      0.951201  1.647529  0.004758     0.254717   -0.580133   -0.000000  
      1.902403  0.000000  2.647170     0.254717   -0.580133   -0.000000  
      0.951201  1.647529  2.016687     0.126215   -0.287462   -0.000000  
      1.902403  0.000000  4.659099     0.126215   -0.287462   -0.000000  

  12 f/i=    0.027539 THz     0.173031 2PiTHz    0.918595 cm-1     0.113891 meV
             X         Y         Z           dx          dy          dz
      0.951201  1.647529  0.004758    -0.000000   -0.000000   -0.632979  
      1.902403  0.000000  2.647170    -0.000000   -0.000000   -0.632979  
      0.951201  1.647529  2.016687    -0.000000   -0.000000   -0.315178  
      1.902403  0.000000  4.659099    -0.000000   -0.000000   -0.315178  



--------------------------------------------------------------------------------------------------------




 MACROSCOPIC STATIC DIELECTRIC TENSOR IONIC CONTRIBUTION
 ------------------------------------------------------
           5.079146    -0.000000    -0.000104
          -0.000000     5.079129    -0.000095
          -0.000104    -0.000095     5.965385
 ------------------------------------------------------


 ELASTIC MODULI IONIC CONTR (kBar)
 Direction    XX          YY          ZZ          XY          YZ          ZX
 --------------------------------------------------------------------------------
 XX        -560.4916    248.7400    322.9781     -0.0000     -0.0000      0.0000
 YY         248.7400   -560.4916    322.9781      0.0000      0.0000     -0.0000
 ZZ         322.9781    322.9781   -669.2177      0.0000     -0.0000     -0.0000
 XY          -0.0000      0.0000      0.0000   -404.6158      0.0000     -0.0000
 YZ          -0.0000      0.0000     -0.0000      0.0000   -141.0186     -0.0000
 ZX           0.0000     -0.0000     -0.0000     -0.0000     -0.0000   -137.7239
 --------------------------------------------------------------------------------


 PIEZOELECTRIC TENSOR IONIC CONTR  for field in x, y, z        (C/m^2)
          XX          YY          ZZ          XY          YZ          ZX
  --------------------------------------------------------------------------------
  x     0.00001     0.00002    -0.00003    -0.00000    -0.00000    -0.78700
  y    -0.00000     0.00003    -0.00003     0.00000    -0.79635    -0.00000
  z    -0.90736    -0.90736     1.88008    -0.00000     0.00000     0.00000


--------------------------------------------------------------------------------------------------------


 writing wavefunctions
     LOOP+:  cpu time 1620.29: real time 1631.17
    4ORBIT:  cpu time    0.00: real time    0.00

 total amount of memory used by VASP on root node    87032. kBytes
========================================================================

   base      :      30000. kBytes
   nonl-proj :      31517. kBytes
   fftplans  :       2392. kBytes
   grid      :       5080. kBytes
   one-center:         62. kBytes
   wavefun   :      17981. kBytes

  
  
 General timing and accounting informations for this job:
 ========================================================
  
                  Total CPU time used (sec):     1621.895
                            User time (sec):     1620.900
                          System time (sec):        0.994
                         Elapsed time (sec):     1633.655
  
                   Maximum memory used (kb):      389308.
                   Average memory used (kb):           0.
  
                          Minor page faults:       419185
                          Major page faults:            4
                 Voluntary context switches:           49
