<?xml version="1.0" encoding="ISO-8859-1"?>
<modeling>
 <generator>
  <i name="program" type="string">vasp </i>
  <i name="version" type="string">5.4.4.18Apr17-6-g9f103f2a35  </i>
  <i name="subversion" type="string">(build Nov 16 2021 14:02:39) complex            parallel </i>
  <i name="platform" type="string">LinuxGNU_vivaldi </i>
  <i name="date" type="string">2024 09 13 </i>
  <i name="time" type="string">16:45:33 </i>
 </generator>
 <incar>
  <i type="int" name="ISTART">     1</i>
  <i type="string" name="PREC">accurate</i>
  <i type="string" name="ALGO"> Fast     ! need the starting wavefuncti</i>
  <i type="int" name="NSIM">     4</i>
  <i type="int" name="ICHARG">     0</i>
  <i type="int" name="NELMIN">     4</i>
  <i type="int" name="IBRION">     6</i>
  <i type="int" name="NFREE">     2</i>
  <i name="EDIFF">      0.00000500</i>
  <i type="int" name="NSW">     1</i>
  <i type="int" name="ISIF">     3</i>
  <i name="SYMPREC">      0.00000001</i>
  <i name="ENCUT">    600.00000000</i>
  <i name="POTIM">      0.01500000</i>
  <i type="logical" name="LREAL"> F  </i>
  <i type="logical" name="LPLANE"> T  </i>
  <i type="int" name="ISMEAR">    -5</i>
  <i name="SIGMA">      0.05000000</i>
  <i type="int" name="LMAXMIX">     4</i>
  <i type="logical" name="LSCALU"> T  </i>
  <v type="int" name="KPOINT_BSE">    -1     0     0     0</v>
  <i type="logical" name="LEPSILON"> T  </i>
  <i type="logical" name="LRPA"> F  </i>
 </incar>
 <structure name="primitive_cell" >
  <crystal>
   <varray name="basis" >
    <v>       5.51946626       0.00000000       0.00000000 </v>
    <v>       0.00000000       5.51946626       0.00000000 </v>
    <v>       0.00000000       0.00000000       4.64963585 </v>
   </varray>
   <i name="volume">    141.64886774 </i>
   <varray name="rec_basis" >
    <v>       0.18117694       0.00000000       0.00000000 </v>
    <v>       0.00000000       0.18117694       0.00000000 </v>
    <v>       0.00000000       0.00000000       0.21507061 </v>
   </varray>
  </crystal>
  <varray name="positions" >
   <v>       0.00000000      -0.50000000       0.32659965 </v>
   <v>       0.00000000      -0.50000000      -0.39819460 </v>
   <v>       0.14763624      -0.35236376       0.17656203 </v>
   <v>      -0.14763624       0.35236376       0.17656203 </v>
   <v>      -0.14537472       0.35462528      -0.04270603 </v>
   <v>       0.14537472      -0.35462528      -0.04270603 </v>
   <v>       0.26242757      -0.23757243       0.28193159 </v>
   <v>      -0.26242757       0.23757243       0.28193159 </v>
   <v>      -0.23757243      -0.26242757      -0.28193159 </v>
   <v>       0.23757243       0.26242757      -0.28193159 </v>
   <v>       0.35462528       0.14537472       0.04270603 </v>
   <v>      -0.35462528      -0.14537472       0.04270603 </v>
   <v>      -0.35236376      -0.14763624      -0.17656203 </v>
   <v>       0.35236376       0.14763624      -0.17656203 </v>
   <v>      -0.50000000       0.00000000       0.39819460 </v>
   <v>      -0.50000000       0.00000000      -0.32659965 </v>
  </varray>
 </structure>
 <varray name="primitive_index" >
  <v type="int" >        1 </v>
  <v type="int" >        3 </v>
  <v type="int" >        5 </v>
  <v type="int" >        7 </v>
  <v type="int" >       15 </v>
  <v type="int" >       13 </v>
  <v type="int" >        9 </v>
  <v type="int" >       11 </v>
  <v type="int" >       10 </v>
  <v type="int" >       12 </v>
  <v type="int" >       16 </v>
  <v type="int" >       14 </v>
  <v type="int" >        6 </v>
  <v type="int" >        8 </v>
  <v type="int" >        4 </v>
  <v type="int" >        2 </v>
 </varray>
 <kpoints>
  <generation param="Gamma">
   <v type="int" name="divisions">       6        6        7 </v>
   <v name="usershift">      0.00000000       0.00000000       0.00000000 </v>
   <v name="genvec1">      0.16666667       0.00000000       0.00000000 </v>
   <v name="genvec2">      0.00000000       0.16666667       0.00000000 </v>
   <v name="genvec3">      0.00000000       0.00000000       0.14285714 </v>
   <v name="shift">      0.00000000       0.00000000       0.00000000 </v>
  </generation>
  <varray name="kpointlist" >
   <v>       0.00000000       0.00000000       0.00000000 </v>
   <v>       0.16666667       0.00000000       0.00000000 </v>
   <v>       0.33333333       0.00000000       0.00000000 </v>
   <v>       0.50000000       0.00000000       0.00000000 </v>
   <v>       0.16666667       0.16666667       0.00000000 </v>
   <v>       0.33333333       0.16666667       0.00000000 </v>
   <v>       0.50000000       0.16666667       0.00000000 </v>
   <v>       0.33333333       0.33333333       0.00000000 </v>
   <v>       0.50000000       0.33333333       0.00000000 </v>
   <v>       0.50000000       0.50000000       0.00000000 </v>
   <v>       0.00000000       0.00000000       0.14285714 </v>
   <v>       0.16666667       0.00000000       0.14285714 </v>
   <v>       0.33333333       0.00000000       0.14285714 </v>
   <v>       0.50000000       0.00000000       0.14285714 </v>
   <v>       0.16666667       0.16666667       0.14285714 </v>
   <v>       0.33333333       0.16666667       0.14285714 </v>
   <v>       0.50000000       0.16666667       0.14285714 </v>
   <v>       0.33333333       0.33333333       0.14285714 </v>
   <v>       0.50000000       0.33333333       0.14285714 </v>
   <v>       0.50000000       0.50000000       0.14285714 </v>
   <v>       0.00000000       0.00000000       0.28571429 </v>
   <v>       0.16666667       0.00000000       0.28571429 </v>
   <v>       0.33333333       0.00000000       0.28571429 </v>
   <v>       0.50000000       0.00000000       0.28571429 </v>
   <v>       0.16666667       0.16666667       0.28571429 </v>
   <v>       0.33333333       0.16666667       0.28571429 </v>
   <v>       0.50000000       0.16666667       0.28571429 </v>
   <v>       0.33333333       0.33333333       0.28571429 </v>
   <v>       0.50000000       0.33333333       0.28571429 </v>
   <v>       0.50000000       0.50000000       0.28571429 </v>
   <v>       0.00000000       0.00000000       0.42857143 </v>
   <v>       0.16666667       0.00000000       0.42857143 </v>
   <v>       0.33333333       0.00000000       0.42857143 </v>
   <v>       0.50000000       0.00000000       0.42857143 </v>
   <v>       0.16666667       0.16666667       0.42857143 </v>
   <v>       0.33333333       0.16666667       0.42857143 </v>
   <v>       0.50000000       0.16666667       0.42857143 </v>
   <v>       0.33333333       0.33333333       0.42857143 </v>
   <v>       0.50000000       0.33333333       0.42857143 </v>
   <v>       0.50000000       0.50000000       0.42857143 </v>
  </varray>
  <varray name="weights" >
   <v>       0.00396825 </v>
   <v>       0.01587302 </v>
   <v>       0.01587302 </v>
   <v>       0.00793651 </v>
   <v>       0.01587302 </v>
   <v>       0.03174603 </v>
   <v>       0.01587302 </v>
   <v>       0.01587302 </v>
   <v>       0.01587302 </v>
   <v>       0.00396825 </v>
   <v>       0.00793651 </v>
   <v>       0.03174603 </v>
   <v>       0.03174603 </v>
   <v>       0.01587302 </v>
   <v>       0.03174603 </v>
   <v>       0.06349206 </v>
   <v>       0.03174603 </v>
   <v>       0.03174603 </v>
   <v>       0.03174603 </v>
   <v>       0.00793651 </v>
   <v>       0.00793651 </v>
   <v>       0.03174603 </v>
   <v>       0.03174603 </v>
   <v>       0.01587302 </v>
   <v>       0.03174603 </v>
   <v>       0.06349206 </v>
   <v>       0.03174603 </v>
   <v>       0.03174603 </v>
   <v>       0.03174603 </v>
   <v>       0.00793651 </v>
   <v>       0.00793651 </v>
   <v>       0.03174603 </v>
   <v>       0.03174603 </v>
   <v>       0.01587302 </v>
   <v>       0.03174603 </v>
   <v>       0.06349206 </v>
   <v>       0.03174603 </v>
   <v>       0.03174603 </v>
   <v>       0.03174603 </v>
   <v>       0.00793651 </v>
  </varray>
  <varray name="tetrahedronlist"  type="int" >
   <v type="int" >        4        1        2        5       11 </v>
   <v type="int" >        4        2        5       11       12 </v>
   <v type="int" >        4        5       11       12       15 </v>
   <v type="int" >        4        2        3        6       12 </v>
   <v type="int" >        4        2        5        6       12 </v>
   <v type="int" >        4        5        6       12       15 </v>
   <v type="int" >        4        3        6       12       13 </v>
   <v type="int" >        4        6       12       13       16 </v>
   <v type="int" >        4        6       12       15       16 </v>
   <v type="int" >        4        3        4        7       13 </v>
   <v type="int" >        4        3        6        7       13 </v>
   <v type="int" >        4        6        7       13       16 </v>
   <v type="int" >        4        4        7       13       14 </v>
   <v type="int" >        4        7       13       14       17 </v>
   <v type="int" >        4        7       13       16       17 </v>
   <v type="int" >        4        3        4        6       14 </v>
   <v type="int" >        4        4        6        7       14 </v>
   <v type="int" >        4        6        7       14       17 </v>
   <v type="int" >        4        3        6       13       14 </v>
   <v type="int" >        4        6       13       14       16 </v>
   <v type="int" >        4        6       14       16       17 </v>
   <v type="int" >        4        2        3        5       13 </v>
   <v type="int" >        4        3        5        6       13 </v>
   <v type="int" >        4        5        6       13       16 </v>
   <v type="int" >        4        2        5       12       13 </v>
   <v type="int" >        4        5       12       13       15 </v>
   <v type="int" >        4        5       13       15       16 </v>
   <v type="int" >        4        1        2        2       12 </v>
   <v type="int" >        4        2        2        5       12 </v>
   <v type="int" >        4        2        5       12       15 </v>
   <v type="int" >        4        1        2       11       12 </v>
   <v type="int" >        4        2       11       12       12 </v>
   <v type="int" >        4        2       12       12       15 </v>
   <v type="int" >        4        5        6        8       15 </v>
   <v type="int" >        4        6        8       15       16 </v>
   <v type="int" >        4        8       15       16       18 </v>
   <v type="int" >        4        6        7        9       16 </v>
   <v type="int" >        4        6        8        9       16 </v>
   <v type="int" >        4        8        9       16       18 </v>
   <v type="int" >        4        7        9       16       17 </v>
   <v type="int" >        4        9       16       17       19 </v>
   <v type="int" >        4        9       16       18       19 </v>
   <v type="int" >        4        6        7        8       17 </v>
   <v type="int" >        4        7        8        9       17 </v>
   <v type="int" >        4        8        9       17       19 </v>
   <v type="int" >        4        6        8       16       17 </v>
   <v type="int" >        4        8       16       17       18 </v>
   <v type="int" >        4        8       17       18       19 </v>
   <v type="int" >        4        5        6        6       16 </v>
   <v type="int" >        4        6        6        8       16 </v>
   <v type="int" >        4        6        8       16       18 </v>
   <v type="int" >        4        5        6       15       16 </v>
   <v type="int" >        4        6       15       16       16 </v>
   <v type="int" >        4        6       16       16       18 </v>
   <v type="int" >        4        2        3        5       15 </v>
   <v type="int" >        4        3        5        6       15 </v>
   <v type="int" >        4        3        6       15       16 </v>
   <v type="int" >        4        2        3       12       15 </v>
   <v type="int" >        4        3       12       13       15 </v>
   <v type="int" >        4        3       13       15       16 </v>
   <v type="int" >        4        8        9       10       18 </v>
   <v type="int" >        4        9       10       18       19 </v>
   <v type="int" >        4       10       18       19       20 </v>
   <v type="int" >        4        8        9        9       19 </v>
   <v type="int" >        4        9        9       10       19 </v>
   <v type="int" >        4        9       10       19       20 </v>
   <v type="int" >        4        8        9       18       19 </v>
   <v type="int" >        4        9       18       19       19 </v>
   <v type="int" >        4        9       19       19       20 </v>
   <v type="int" >        4        6        7        8       18 </v>
   <v type="int" >        4        7        8        9       18 </v>
   <v type="int" >        4        7        9       18       19 </v>
   <v type="int" >        4        6        7       16       18 </v>
   <v type="int" >        4        7       16       17       18 </v>
   <v type="int" >        4        7       17       18       19 </v>
   <v type="int" >        4        3        4        6       16 </v>
   <v type="int" >        4        4        6        7       16 </v>
   <v type="int" >        4        4        7       16       17 </v>
   <v type="int" >        4        3        4       13       16 </v>
   <v type="int" >        4        4       13       14       16 </v>
   <v type="int" >        4        4       14       16       17 </v>
   <v type="int" >        4        8        9       10       20 </v>
   <v type="int" >        4        8        9       19       20 </v>
   <v type="int" >        4        8       18       19       20 </v>
   <v type="int" >        4        6        7        9       19 </v>
   <v type="int" >        4        6        8        9       19 </v>
   <v type="int" >        4        6        8       18       19 </v>
   <v type="int" >        4        6        7       17       19 </v>
   <v type="int" >        4        6       16       17       19 </v>
   <v type="int" >        4        6       16       18       19 </v>
   <v type="int" >        4        3        4        7       17 </v>
   <v type="int" >        4        3        6        7       17 </v>
   <v type="int" >        4        3        6       16       17 </v>
   <v type="int" >        4        3        4       14       17 </v>
   <v type="int" >        4        3       13       14       17 </v>
   <v type="int" >        4        3       13       16       17 </v>
   <v type="int" >        4        5        6        8       18 </v>
   <v type="int" >        4        5        6       16       18 </v>
   <v type="int" >        4        5       15       16       18 </v>
   <v type="int" >        4        2        3        6       16 </v>
   <v type="int" >        4        2        5        6       16 </v>
   <v type="int" >        4        2        5       15       16 </v>
   <v type="int" >        4        2        3       13       16 </v>
   <v type="int" >        4        2       12       13       16 </v>
   <v type="int" >        4        2       12       15       16 </v>
   <v type="int" >        4        1        2        5       15 </v>
   <v type="int" >        4        1        2       12       15 </v>
   <v type="int" >        4        1       11       12       15 </v>
   <v type="int" >        4       11       12       15       21 </v>
   <v type="int" >        4       12       15       21       22 </v>
   <v type="int" >        4       15       21       22       25 </v>
   <v type="int" >        4       12       13       16       22 </v>
   <v type="int" >        4       12       15       16       22 </v>
   <v type="int" >        4       15       16       22       25 </v>
   <v type="int" >        4       13       16       22       23 </v>
   <v type="int" >        4       16       22       23       26 </v>
   <v type="int" >        4       16       22       25       26 </v>
   <v type="int" >        4       13       14       17       23 </v>
   <v type="int" >        4       13       16       17       23 </v>
   <v type="int" >        4       16       17       23       26 </v>
   <v type="int" >        4       14       17       23       24 </v>
   <v type="int" >        4       17       23       24       27 </v>
   <v type="int" >        4       17       23       26       27 </v>
   <v type="int" >        4       13       14       16       24 </v>
   <v type="int" >        4       14       16       17       24 </v>
   <v type="int" >        4       16       17       24       27 </v>
   <v type="int" >        4       13       16       23       24 </v>
   <v type="int" >        4       16       23       24       26 </v>
   <v type="int" >        4       16       24       26       27 </v>
   <v type="int" >        4       12       13       15       23 </v>
   <v type="int" >        4       13       15       16       23 </v>
   <v type="int" >        4       15       16       23       26 </v>
   <v type="int" >        4       12       15       22       23 </v>
   <v type="int" >        4       15       22       23       25 </v>
   <v type="int" >        4       15       23       25       26 </v>
   <v type="int" >        4       11       12       12       22 </v>
   <v type="int" >        4       12       12       15       22 </v>
   <v type="int" >        4       12       15       22       25 </v>
   <v type="int" >        4       11       12       21       22 </v>
   <v type="int" >        4       12       21       22       22 </v>
   <v type="int" >        4       12       22       22       25 </v>
   <v type="int" >        4       15       16       18       25 </v>
   <v type="int" >        4       16       18       25       26 </v>
   <v type="int" >        4       18       25       26       28 </v>
   <v type="int" >        4       16       17       19       26 </v>
   <v type="int" >        4       16       18       19       26 </v>
   <v type="int" >        4       18       19       26       28 </v>
   <v type="int" >        4       17       19       26       27 </v>
   <v type="int" >        4       19       26       27       29 </v>
   <v type="int" >        4       19       26       28       29 </v>
   <v type="int" >        4       16       17       18       27 </v>
   <v type="int" >        4       17       18       19       27 </v>
   <v type="int" >        4       18       19       27       29 </v>
   <v type="int" >        4       16       18       26       27 </v>
   <v type="int" >        4       18       26       27       28 </v>
   <v type="int" >        4       18       27       28       29 </v>
   <v type="int" >        4       15       16       16       26 </v>
   <v type="int" >        4       16       16       18       26 </v>
   <v type="int" >        4       16       18       26       28 </v>
   <v type="int" >        4       15       16       25       26 </v>
   <v type="int" >        4       16       25       26       26 </v>
   <v type="int" >        4       16       26       26       28 </v>
   <v type="int" >        4       12       13       15       25 </v>
   <v type="int" >        4       13       15       16       25 </v>
   <v type="int" >        4       13       16       25       26 </v>
   <v type="int" >        4       12       13       22       25 </v>
   <v type="int" >        4       13       22       23       25 </v>
   <v type="int" >        4       13       23       25       26 </v>
   <v type="int" >        4       18       19       20       28 </v>
   <v type="int" >        4       19       20       28       29 </v>
   <v type="int" >        4       20       28       29       30 </v>
   <v type="int" >        4       18       19       19       29 </v>
   <v type="int" >        4       19       19       20       29 </v>
   <v type="int" >        4       19       20       29       30 </v>
   <v type="int" >        4       18       19       28       29 </v>
   <v type="int" >        4       19       28       29       29 </v>
   <v type="int" >        4       19       29       29       30 </v>
   <v type="int" >        4       16       17       18       28 </v>
   <v type="int" >        4       17       18       19       28 </v>
   <v type="int" >        4       17       19       28       29 </v>
   <v type="int" >        4       16       17       26       28 </v>
   <v type="int" >        4       17       26       27       28 </v>
   <v type="int" >        4       17       27       28       29 </v>
   <v type="int" >        4       13       14       16       26 </v>
   <v type="int" >        4       14       16       17       26 </v>
   <v type="int" >        4       14       17       26       27 </v>
   <v type="int" >        4       13       14       23       26 </v>
   <v type="int" >        4       14       23       24       26 </v>
   <v type="int" >        4       14       24       26       27 </v>
   <v type="int" >        4       18       19       20       30 </v>
   <v type="int" >        4       18       19       29       30 </v>
   <v type="int" >        4       18       28       29       30 </v>
   <v type="int" >        4       16       17       19       29 </v>
   <v type="int" >        4       16       18       19       29 </v>
   <v type="int" >        4       16       18       28       29 </v>
   <v type="int" >        4       16       17       27       29 </v>
   <v type="int" >        4       16       26       27       29 </v>
   <v type="int" >        4       16       26       28       29 </v>
   <v type="int" >        4       13       14       17       27 </v>
   <v type="int" >        4       13       16       17       27 </v>
   <v type="int" >        4       13       16       26       27 </v>
   <v type="int" >        4       13       14       24       27 </v>
   <v type="int" >        4       13       23       24       27 </v>
   <v type="int" >        4       13       23       26       27 </v>
   <v type="int" >        4       15       16       18       28 </v>
   <v type="int" >        4       15       16       26       28 </v>
   <v type="int" >        4       15       25       26       28 </v>
   <v type="int" >        4       12       13       16       26 </v>
   <v type="int" >        4       12       15       16       26 </v>
   <v type="int" >        4       12       15       25       26 </v>
   <v type="int" >        4       12       13       23       26 </v>
   <v type="int" >        4       12       22       23       26 </v>
   <v type="int" >        4       12       22       25       26 </v>
   <v type="int" >        4       11       12       15       25 </v>
   <v type="int" >        4       11       12       22       25 </v>
   <v type="int" >        4       11       21       22       25 </v>
   <v type="int" >        4       21       22       25       31 </v>
   <v type="int" >        4       22       25       31       32 </v>
   <v type="int" >        4       25       31       32       35 </v>
   <v type="int" >        4       22       23       26       32 </v>
   <v type="int" >        4       22       25       26       32 </v>
   <v type="int" >        4       25       26       32       35 </v>
   <v type="int" >        4       23       26       32       33 </v>
   <v type="int" >        4       26       32       33       36 </v>
   <v type="int" >        4       26       32       35       36 </v>
   <v type="int" >        4       23       24       27       33 </v>
   <v type="int" >        4       23       26       27       33 </v>
   <v type="int" >        4       26       27       33       36 </v>
   <v type="int" >        4       24       27       33       34 </v>
   <v type="int" >        4       27       33       34       37 </v>
   <v type="int" >        4       27       33       36       37 </v>
   <v type="int" >        4       23       24       26       34 </v>
   <v type="int" >        4       24       26       27       34 </v>
   <v type="int" >        4       26       27       34       37 </v>
   <v type="int" >        4       23       26       33       34 </v>
   <v type="int" >        4       26       33       34       36 </v>
   <v type="int" >        4       26       34       36       37 </v>
   <v type="int" >        4       22       23       25       33 </v>
   <v type="int" >        4       23       25       26       33 </v>
   <v type="int" >        4       25       26       33       36 </v>
   <v type="int" >        4       22       25       32       33 </v>
   <v type="int" >        4       25       32       33       35 </v>
   <v type="int" >        4       25       33       35       36 </v>
   <v type="int" >        4       21       22       22       32 </v>
   <v type="int" >        4       22       22       25       32 </v>
   <v type="int" >        4       22       25       32       35 </v>
   <v type="int" >        4       21       22       31       32 </v>
   <v type="int" >        4       22       31       32       32 </v>
   <v type="int" >        4       22       32       32       35 </v>
   <v type="int" >        4       25       26       28       35 </v>
   <v type="int" >        4       26       28       35       36 </v>
   <v type="int" >        4       28       35       36       38 </v>
   <v type="int" >        4       26       27       29       36 </v>
   <v type="int" >        4       26       28       29       36 </v>
   <v type="int" >        4       28       29       36       38 </v>
   <v type="int" >        4       27       29       36       37 </v>
   <v type="int" >        4       29       36       37       39 </v>
   <v type="int" >        4       29       36       38       39 </v>
   <v type="int" >        4       26       27       28       37 </v>
   <v type="int" >        4       27       28       29       37 </v>
   <v type="int" >        4       28       29       37       39 </v>
   <v type="int" >        4       26       28       36       37 </v>
   <v type="int" >        4       28       36       37       38 </v>
   <v type="int" >        4       28       37       38       39 </v>
   <v type="int" >        4       25       26       26       36 </v>
   <v type="int" >        4       26       26       28       36 </v>
   <v type="int" >        4       26       28       36       38 </v>
   <v type="int" >        4       25       26       35       36 </v>
   <v type="int" >        4       26       35       36       36 </v>
   <v type="int" >        4       26       36       36       38 </v>
   <v type="int" >        4       22       23       25       35 </v>
   <v type="int" >        4       23       25       26       35 </v>
   <v type="int" >        4       23       26       35       36 </v>
   <v type="int" >        4       22       23       32       35 </v>
   <v type="int" >        4       23       32       33       35 </v>
   <v type="int" >        4       23       33       35       36 </v>
   <v type="int" >        4       28       29       30       38 </v>
   <v type="int" >        4       29       30       38       39 </v>
   <v type="int" >        4       30       38       39       40 </v>
   <v type="int" >        4       28       29       29       39 </v>
   <v type="int" >        4       29       29       30       39 </v>
   <v type="int" >        4       29       30       39       40 </v>
   <v type="int" >        4       28       29       38       39 </v>
   <v type="int" >        4       29       38       39       39 </v>
   <v type="int" >        4       29       39       39       40 </v>
   <v type="int" >        4       26       27       28       38 </v>
   <v type="int" >        4       27       28       29       38 </v>
   <v type="int" >        4       27       29       38       39 </v>
   <v type="int" >        4       26       27       36       38 </v>
   <v type="int" >        4       27       36       37       38 </v>
   <v type="int" >        4       27       37       38       39 </v>
   <v type="int" >        4       23       24       26       36 </v>
   <v type="int" >        4       24       26       27       36 </v>
   <v type="int" >        4       24       27       36       37 </v>
   <v type="int" >        4       23       24       33       36 </v>
   <v type="int" >        4       24       33       34       36 </v>
   <v type="int" >        4       24       34       36       37 </v>
   <v type="int" >        4       28       29       30       40 </v>
   <v type="int" >        4       28       29       39       40 </v>
   <v type="int" >        4       28       38       39       40 </v>
   <v type="int" >        4       26       27       29       39 </v>
   <v type="int" >        4       26       28       29       39 </v>
   <v type="int" >        4       26       28       38       39 </v>
   <v type="int" >        4       26       27       37       39 </v>
   <v type="int" >        4       26       36       37       39 </v>
   <v type="int" >        4       26       36       38       39 </v>
   <v type="int" >        4       23       24       27       37 </v>
   <v type="int" >        4       23       26       27       37 </v>
   <v type="int" >        4       23       26       36       37 </v>
   <v type="int" >        4       23       24       34       37 </v>
   <v type="int" >        4       23       33       34       37 </v>
   <v type="int" >        4       23       33       36       37 </v>
   <v type="int" >        4       25       26       28       38 </v>
   <v type="int" >        4       25       26       36       38 </v>
   <v type="int" >        4       25       35       36       38 </v>
   <v type="int" >        4       22       23       26       36 </v>
   <v type="int" >        4       22       25       26       36 </v>
   <v type="int" >        4       22       25       35       36 </v>
   <v type="int" >        4       22       23       33       36 </v>
   <v type="int" >        4       22       32       33       36 </v>
   <v type="int" >        4       22       32       35       36 </v>
   <v type="int" >        4       21       22       25       35 </v>
   <v type="int" >        4       21       22       32       35 </v>
   <v type="int" >        4       21       31       32       35 </v>
   <v type="int" >        4       31       31       32       35 </v>
   <v type="int" >        4       31       32       32       35 </v>
   <v type="int" >        4       31       32       35       35 </v>
   <v type="int" >        4       32       32       33       36 </v>
   <v type="int" >        4       32       32       35       36 </v>
   <v type="int" >        4       32       35       35       36 </v>
   <v type="int" >        4       32       33       33       36 </v>
   <v type="int" >        4       32       33       36       36 </v>
   <v type="int" >        4       32       35       36       36 </v>
   <v type="int" >        4       33       33       34       37 </v>
   <v type="int" >        4       33       33       36       37 </v>
   <v type="int" >        4       33       36       36       37 </v>
   <v type="int" >        4       33       34       34       37 </v>
   <v type="int" >        4       33       34       37       37 </v>
   <v type="int" >        4       33       36       37       37 </v>
   <v type="int" >        4       33       34       34       36 </v>
   <v type="int" >        4       34       34       36       37 </v>
   <v type="int" >        4       34       36       37       37 </v>
   <v type="int" >        4       33       33       34       36 </v>
   <v type="int" >        4       33       34       36       36 </v>
   <v type="int" >        4       34       36       36       37 </v>
   <v type="int" >        4       32       33       33       35 </v>
   <v type="int" >        4       33       33       35       36 </v>
   <v type="int" >        4       33       35       36       36 </v>
   <v type="int" >        4       32       32       33       35 </v>
   <v type="int" >        4       32       33       35       35 </v>
   <v type="int" >        4       33       35       35       36 </v>
   <v type="int" >        4       31       32       32       32 </v>
   <v type="int" >        4       32       32       32       35 </v>
   <v type="int" >        2       32       32       35       35 </v>
   <v type="int" >        2       31       31       32       32 </v>
   <v type="int" >        4       35       35       36       38 </v>
   <v type="int" >        4       35       36       36       38 </v>
   <v type="int" >        4       35       36       38       38 </v>
   <v type="int" >        4       36       36       37       39 </v>
   <v type="int" >        4       36       36       38       39 </v>
   <v type="int" >        4       36       38       38       39 </v>
   <v type="int" >        4       36       37       37       39 </v>
   <v type="int" >        4       36       37       39       39 </v>
   <v type="int" >        4       36       38       39       39 </v>
   <v type="int" >        4       36       37       37       38 </v>
   <v type="int" >        4       37       37       38       39 </v>
   <v type="int" >        4       37       38       39       39 </v>
   <v type="int" >        4       36       36       37       38 </v>
   <v type="int" >        4       36       37       38       38 </v>
   <v type="int" >        4       37       38       38       39 </v>
   <v type="int" >        4       35       36       36       36 </v>
   <v type="int" >        4       36       36       36       38 </v>
   <v type="int" >        2       36       36       38       38 </v>
   <v type="int" >        2       35       35       36       36 </v>
   <v type="int" >        4       38       38       39       40 </v>
   <v type="int" >        4       38       39       39       40 </v>
   <v type="int" >        4       38       39       40       40 </v>
   <v type="int" >        4       38       39       39       39 </v>
   <v type="int" >        4       39       39       39       40 </v>
   <v type="int" >        2       39       39       40       40 </v>
   <v type="int" >        2       38       38       39       39 </v>
  </varray>
  <i name="volumeweight">      0.00066138 </i>
 </kpoints>
 <parameters>
  <separator name="general" >
   <i type="string" name="SYSTEM">unknown system</i>
   <i type="logical" name="LCOMPAT"> F  </i>
  </separator>
  <separator name="electronic" >
   <i type="string" name="PREC">accura</i>
   <i name="ENMAX">    600.00000000</i>
   <i name="ENAUG">    644.87300000</i>
   <i name="EDIFF">      0.00000500</i>
   <i type="int" name="IALGO">    68</i>
   <i type="int" name="IWAVPR">    11</i>
   <i type="int" name="NBANDS">    40</i>
   <i name="NELECT">     48.00000000</i>
   <i type="int" name="TURBO">     0</i>
   <i type="int" name="IRESTART">     0</i>
   <i type="int" name="NREBOOT">     0</i>
   <i type="int" name="NMIN">     0</i>
   <i name="EREF">      0.00000000</i>
   <separator name="electronic smearing" >
    <i type="int" name="ISMEAR">    -5</i>
    <i name="SIGMA">      0.05000000</i>
    <i name="KSPACING">      0.50000000</i>
    <i type="logical" name="KGAMMA"> T  </i>
   </separator>
   <separator name="electronic projectors" >
    <i type="logical" name="LREAL"> F  </i>
    <v name="ROPT">      0.00000000      0.00000000      0.00000000      0.00000000</v>
    <i type="int" name="LMAXPAW">  -100</i>
    <i type="int" name="LMAXMIX">     4</i>
    <i type="logical" name="NLSPLINE"> F  </i>
   </separator>
   <separator name="electronic startup" >
    <i type="int" name="ISTART">     1</i>
    <i type="int" name="ICHARG">     0</i>
    <i type="int" name="INIWAV">     1</i>
   </separator>
   <separator name="electronic spin" >
    <i type="int" name="ISPIN">     1</i>
    <i type="logical" name="LNONCOLLINEAR"> F  </i>
    <v name="MAGMOM">      1.00000000      1.00000000      1.00000000      1.00000000      1.00000000      1.00000000      1.00000000      1.00000000      1.00000000      1.00000000      1.00000000      1.00000000      1.00000000      1.00000000      1.00000000      1.00000000</v>
    <i name="NUPDOWN">     -1.00000000</i>
    <i type="logical" name="LSORBIT"> F  </i>
    <v name="SAXIS">      0.00000000      0.00000000      1.00000000</v>
    <i type="logical" name="LSPIRAL"> F  </i>
    <v name="QSPIRAL">      0.00000000      0.00000000      0.00000000</v>
    <i type="logical" name="LZEROZ"> F  </i>
   </separator>
   <separator name="electronic exchange-correlation" >
    <i type="logical" name="LASPH"> F  </i>
    <i type="logical" name="LMETAGGA"> F  </i>
   </separator>
   <separator name="electronic convergence" >
    <i type="int" name="NELM">    60</i>
    <i type="int" name="NELMDL">     0</i>
    <i type="int" name="NELMIN">     4</i>
    <i name="ENINI">    600.00000000</i>
    <separator name="electronic convergence detail" >
     <i type="logical" name="LDIAG"> T  </i>
     <i type="logical" name="LSUBROT"> F  </i>
     <i name="WEIMIN">      0.00100000</i>
     <i name="EBREAK">      0.00000003</i>
     <i name="DEPER">      0.30000000</i>
     <i type="int" name="NRMM">     4</i>
     <i name="TIME">      0.40000000</i>
    </separator>
   </separator>
   <separator name="electronic mixer" >
    <i name="AMIX">      0.40000000</i>
    <i name="BMIX">      1.00000000</i>
    <i name="AMIN">      0.10000000</i>
    <i name="AMIX_MAG">      1.60000000</i>
    <i name="BMIX_MAG">      1.00000000</i>
    <separator name="electronic mixer details" >
     <i type="int" name="IMIX">     4</i>
     <i type="logical" name="MIXFIRST"> F  </i>
     <i type="int" name="MAXMIX">   -45</i>
     <i name="WC">    100.00000000</i>
     <i type="int" name="INIMIX">     1</i>
     <i type="int" name="MIXPRE">     1</i>
     <i type="int" name="MREMOVE">     5</i>
    </separator>
   </separator>
   <separator name="electronic dipolcorrection" >
    <i type="logical" name="LDIPOL"> F  </i>
    <i type="logical" name="LMONO"> F  </i>
    <i type="int" name="IDIPOL">     0</i>
    <i name="EPSILON">      1.00000000</i>
    <v name="DIPOL">   -100.00000000   -100.00000000   -100.00000000</v>
    <i name="EFIELD">      0.00000000</i>
   </separator>
  </separator>
  <separator name="grids" >
   <i type="int" name="NGX">    48</i>
   <i type="int" name="NGY">    48</i>
   <i type="int" name="NGZ">    40</i>
   <i type="int" name="NGXF">    96</i>
   <i type="int" name="NGYF">    96</i>
   <i type="int" name="NGZF">    80</i>
   <i type="logical" name="ADDGRID"> F  </i>
  </separator>
  <separator name="ionic" >
   <i type="int" name="NSW">   229</i>
   <i type="int" name="IBRION">     6</i>
   <i type="int" name="MDALGO">     0</i>
   <i type="int" name="ISIF">     3</i>
   <i name="PSTRESS">      0.00000000</i>
   <i name="EDIFFG">      0.00005000</i>
   <i type="int" name="NFREE">     2</i>
   <i name="POTIM">      0.01500000</i>
   <i name="SMASS">     -3.00000000</i>
   <i name="SCALEE">      1.00000000</i>
  </separator>
  <separator name="ionic md" >
   <i name="TEBEG">      0.00010000</i>
   <i name="TEEND">      0.00010000</i>
   <i type="int" name="NBLOCK">     1</i>
   <i type="int" name="KBLOCK">   229</i>
   <i type="int" name="NPACO">   256</i>
   <i name="APACO">     16.00000000</i>
  </separator>
  <separator name="symmetry" >
   <i type="int" name="ISYM">     2</i>
   <i name="SYMPREC">      0.00000001</i>
  </separator>
  <separator name="dos" >
   <i type="int" name="LORBIT">     0</i>
   <v name="RWIGS">     -1.00000000     -1.00000000     -1.00000000     -1.00000000</v>
   <i type="int" name="NEDOS">   301</i>
   <i name="EMIN">     10.00000000</i>
   <i name="EMAX">    -10.00000000</i>
   <i name="EFERMI">      0.00000000</i>
  </separator>
  <separator name="writing" >
   <i type="int" name="NWRITE">     2</i>
   <i type="logical" name="LWAVE"> T  </i>
   <i type="logical" name="LDOWNSAMPLE"> F  </i>
   <i type="logical" name="LCHARG"> T  </i>
   <i type="logical" name="LPARD"> F  </i>
   <i type="logical" name="LVTOT"> F  </i>
   <i type="logical" name="LVHAR"> F  </i>
   <i type="logical" name="LELF"> F  </i>
   <i type="logical" name="LOPTICS"> F  </i>
   <v name="STM">      0.00000000      0.00000000      0.00000000      0.00000000      0.00000000      0.00000000      0.00000000</v>
  </separator>
  <separator name="performance" >
   <i type="int" name="NPAR">     8</i>
   <i type="int" name="NSIM">     4</i>
   <i type="int" name="NBLK">    -1</i>
   <i type="logical" name="LPLANE"> T  </i>
   <i type="logical" name="LSCALAPACK"> F  </i>
   <i type="logical" name="LSCAAWARE"> F  </i>
   <i type="logical" name="LSCALU"> T  </i>
   <i type="logical" name="LASYNC"> F  </i>
   <i type="logical" name="LORBITALREAL"> F  </i>
  </separator>
  <separator name="miscellaneous" >
   <i type="int" name="IDIOT">     3</i>
   <i type="int" name="ISPECIAL">     0</i>
   <i type="logical" name="LMUSIC"> F  </i>
   <v name="POMASS">     12.01100000     16.00000000     14.00100000      1.00000000</v>
   <v name="DARWINR">      0.00000000      0.00000000      0.00000000      0.00000000</v>
   <v name="DARWINV">      1.00000000      1.00000000      1.00000000      1.00000000</v>
   <i type="logical" name="LCORR"> T  </i>
  </separator>
  <i type="logical" name="GGA_COMPAT"> T  </i>
  <i type="logical" name="LBERRY"> F  </i>
  <i type="int" name="ICORELEVEL">     0</i>
  <i type="logical" name="LDAU"> F  </i>
  <i type="int" name="I_CONSTRAINED_M">     0</i>
  <separator name="electronic exchange-correlation" >
   <i type="string" name="GGA">--</i>
   <i type="int" name="VOSKOWN">     0</i>
   <i type="logical" name="LHFCALC"> F  </i>
   <i type="string" name="PRECFOCK"></i>
   <i type="logical" name="LSYMGRAD"> F  </i>
   <i type="logical" name="LHFONE"> F  </i>
   <i type="logical" name="LRHFCALC"> F  </i>
   <i type="logical" name="LTHOMAS"> F  </i>
   <i type="logical" name="LMODELHF"> F  </i>
   <i name="ENCUT4O">     -1.00000000</i>
   <i type="int" name="EXXOEP">     0</i>
   <i type="int" name="FOURORBIT">     0</i>
   <i name="AEXX">      0.00000000</i>
   <i name="HFALPHA">      0.00000000</i>
   <i name="MCALPHA">      0.00000000</i>
   <i name="ALDAX">      1.00000000</i>
   <i name="AGGAX">      1.00000000</i>
   <i name="ALDAC">      1.00000000</i>
   <i name="AGGAC">      1.00000000</i>
   <i type="int" name="NKREDX">     1</i>
   <i type="int" name="NKREDY">     1</i>
   <i type="int" name="NKREDZ">     1</i>
   <i type="logical" name="SHIFTRED"> F  </i>
   <i type="logical" name="ODDONLY"> F  </i>
   <i type="logical" name="EVENONLY"> F  </i>
   <i type="int" name="LMAXFOCK">     0</i>
   <i type="int" name="NMAXFOCKAE">     0</i>
   <i type="logical" name="LFOCKAEDFT"> F  </i>
   <i name="HFSCREEN">      0.00000000</i>
   <i name="HFSCREENC">      0.00000000</i>
   <i type="int" name="NBANDSGWLOW">     0</i>
  </separator>
  <separator name="vdW DFT" >
   <i type="logical" name="LUSE_VDW"> F  </i>
   <i name="Zab_VDW">     -0.84910000</i>
   <i name="PARAM1">      0.12340000</i>
   <i name="PARAM2">      1.00000000</i>
   <i name="PARAM3">      0.00000000</i>
  </separator>
  <separator name="model GW" >
   <i type="int" name="MODEL_GW">     0</i>
   <i name="MODEL_EPS0">      5.31183254</i>
   <i name="MODEL_ALPHA">      1.00000000</i>
  </separator>
  <separator name="linear response parameters" >
   <i type="logical" name="LEPSILON"> T  </i>
   <i type="logical" name="LRPA"> F  </i>
   <i type="logical" name="LNABLA"> F  </i>
   <i type="logical" name="LVEL"> F  </i>
   <i type="int" name="KINTER">     0</i>
   <i name="CSHIFT">      0.10000000</i>
   <i name="OMEGAMAX">     -1.00000000</i>
   <i name="DEG_THRESHOLD">      0.00200000</i>
   <i name="RTIME">     -0.10000000</i>
   <i name="WPLASMAI">      0.00000000</i>
   <v name="DFIELD">      0.00000000      0.00000000      0.00000000</v>
   <v name="WPLASMA">      0.00000000      0.00000000      0.00000000      0.00000000      0.00000000      0.00000000      0.00000000      0.00000000      0.00000000</v>
  </separator>
  <separator name="orbital magnetization" >
   <i type="logical" name="NUCIND"> F  </i>
   <v name="MAGPOS">      0.00000000      0.00000000      0.00000000</v>
   <i type="logical" name="LNICSALL"> T  </i>
   <i type="logical" name="ORBITALMAG"> F  </i>
   <i type="logical" name="LMAGBLOCH"> F  </i>
   <i type="logical" name="LCHIMAG"> F  </i>
   <i type="logical" name="LGAUGE"> T  </i>
   <i type="int" name="MAGATOM">     0</i>
   <v name="MAGDIPOL">      0.00000000      0.00000000      0.00000000</v>
   <v name="AVECCONST">      0.00000000      0.00000000      0.00000000</v>
  </separator>
  <separator name="response functions" >
   <i type="logical" name="LADDER"> T  </i>
   <i type="logical" name="LRPAFORCE"> F  </i>
   <i type="logical" name="LFXC"> F  </i>
   <i type="logical" name="LHARTREE"> T  </i>
   <i type="int" name="IBSE">     0</i>
   <v type="int" name="KPOINT">    -1     0     0     0</v>
   <i type="logical" name="LTCTE"> F  </i>
   <i type="logical" name="LTETE"> F  </i>
   <i type="logical" name="LTRIPLET"> F  </i>
   <i type="logical" name="LFXCEPS"> F  </i>
   <i type="logical" name="LFXHEG"> F  </i>
   <i type="int" name="NATURALO">     2</i>
   <i type="logical" name="L2ORDER"> F  </i>
   <i type="logical" name="LMP2LT"> F  </i>
   <i type="logical" name="LUSEW"> F  </i>
   <i name="ENCUTGW">     -2.00000000</i>
   <i name="ENCUTGWSOFT">     -2.00000000</i>
   <i name="ENCUTLF">     -1.00000000</i>
   <i type="int" name="LMAXMP2">    -1</i>
   <i name="SCISSOR">      0.00000000</i>
   <i type="int" name="NOMEGA">     0</i>
   <i type="int" name="NOMEGAR">     0</i>
   <i type="int" name="NBANDSGW">    -1</i>
   <i type="int" name="NBANDSO">    -1</i>
   <i type="int" name="NBANDSV">    -1</i>
   <i type="int" name="NELM">     1</i>
   <i type="int" name="NELMHF">     1</i>
   <i type="int" name="DIM">     3</i>
   <i type="int" name="ANTIRES">     0</i>
   <i name="OMEGAMAX">    -30.00000000</i>
   <i name="OMEGAMIN">    -30.00000000</i>
   <i name="OMEGATL">   -200.00000000</i>
   <i type="int" name="OMEGAGRID">   140</i>
   <i name="CSHIFT">     -0.10000000</i>
   <i type="logical" name="SELFENERGY"> F  </i>
   <i type="logical" name="LSPECTRAL"> F  </i>
   <i type="logical" name="LSPECTRALGW"> F  </i>
   <i type="logical" name="LSINGLES"> F  </i>
   <i type="logical" name="LFERMIGW"> F  </i>
   <i type="logical" name="ODDONLYGW"> F  </i>
   <i type="logical" name="EVENONLYGW"> F  </i>
   <i type="int" name="NKREDLFX">     1</i>
   <i type="int" name="NKREDLFY">     1</i>
   <i type="int" name="NKREDLFZ">     1</i>
   <i type="int" name="MAXMEM">  2800</i>
   <i type="int" name="TELESCOPE">     0</i>
   <i type="int" name="TAUPAR">     1</i>
   <i type="int" name="OMEGAPAR">    -1</i>
   <i name="LAMBDA">      1.00000000</i>
  </separator>
  <separator name="External order field" >
   <i name="OFIELD_KAPPA">      0.00000000</i>
   <v name="OFIELD_K">      0.00000000      0.00000000      0.00000000</v>
   <i name="OFIELD_Q6_NEAR">      0.00000000</i>
   <i name="OFIELD_Q6_FAR">      0.00000000</i>
   <i name="OFIELD_A">      0.00000000</i>
  </separator>
 </parameters>
 <atominfo>
  <atoms>      16 </atoms>
  <types>       4 </types>
  <array name="atoms" >
   <dimension dim="1">ion</dimension>
   <field type="string">element</field>
   <field type="int">atomtype</field>
   <set>
    <rc><c>C </c><c>   1</c></rc>
    <rc><c>C </c><c>   1</c></rc>
    <rc><c>O </c><c>   2</c></rc>
    <rc><c>O </c><c>   2</c></rc>
    <rc><c>N </c><c>   3</c></rc>
    <rc><c>N </c><c>   3</c></rc>
    <rc><c>N </c><c>   3</c></rc>
    <rc><c>N </c><c>   3</c></rc>
    <rc><c>H </c><c>   4</c></rc>
    <rc><c>H </c><c>   4</c></rc>
    <rc><c>H </c><c>   4</c></rc>
    <rc><c>H </c><c>   4</c></rc>
    <rc><c>H </c><c>   4</c></rc>
    <rc><c>H </c><c>   4</c></rc>
    <rc><c>H </c><c>   4</c></rc>
    <rc><c>H </c><c>   4</c></rc>
   </set>
  </array>
  <array name="atomtypes" >
   <dimension dim="1">type</dimension>
   <field type="int">atomspertype</field>
   <field type="string">element</field>
   <field>mass</field>
   <field>valence</field>
   <field type="string">pseudopotential</field>
   <set>
    <rc><c>   2</c><c>C </c><c>     12.01100000</c><c>      4.00000000</c><c>  PAW_PBE C 08Apr2002                   </c></rc>
    <rc><c>   2</c><c>O </c><c>     16.00000000</c><c>      6.00000000</c><c>  PAW_PBE O 08Apr2002                   </c></rc>
    <rc><c>   4</c><c>N </c><c>     14.00100000</c><c>      5.00000000</c><c>  PAW_PBE N 08Apr2002                   </c></rc>
    <rc><c>   8</c><c>H </c><c>      1.00000000</c><c>      1.00000000</c><c>  PAW_PBE H 15Jun2001                   </c></rc>
   </set>
  </array>
 </atominfo>
 <structure name="initialpos" >
  <crystal>
   <varray name="basis" >
    <v>       5.51946626       0.00000000       0.00000000 </v>
    <v>       0.00000000       5.51946626       0.00000000 </v>
    <v>       0.00000000       0.00000000       4.64963585 </v>
   </varray>
   <i name="volume">    141.64886774 </i>
   <varray name="rec_basis" >
    <v>       0.18117694       0.00000000       0.00000000 </v>
    <v>       0.00000000       0.18117694       0.00000000 </v>
    <v>       0.00000000       0.00000000       0.21507061 </v>
   </varray>
  </crystal>
  <varray name="positions" >
   <v>       0.00000000       0.50000000       0.32659965 </v>
   <v>       0.50000000       0.00000000       0.67340035 </v>
   <v>       0.00000000       0.50000000       0.60180540 </v>
   <v>       0.50000000       0.00000000       0.39819460 </v>
   <v>       0.14763624       0.64763624       0.17656203 </v>
   <v>       0.64763624       0.85236376       0.82343797 </v>
   <v>       0.85236376       0.35236376       0.17656203 </v>
   <v>       0.35236376       0.14763624       0.82343797 </v>
   <v>       0.26242757       0.76242757       0.28193159 </v>
   <v>       0.76242757       0.73757243       0.71806841 </v>
   <v>       0.73757243       0.23757243       0.28193159 </v>
   <v>       0.23757243       0.26242757       0.71806841 </v>
   <v>       0.14537472       0.64537472       0.95729397 </v>
   <v>       0.64537472       0.85462528       0.04270603 </v>
   <v>       0.85462528       0.35462528       0.95729397 </v>
   <v>       0.35462528       0.14537472       0.04270603 </v>
  </varray>
 </structure>
 <calculation>
  <scstep>
   <time name="dav">    4.99    5.03</time>
   <time name="total">    5.19    5.24</time>
   <energy>
    <i name="alphaZ">     65.42746567 </i>
    <i name="ewald">  -1137.94178206 </i>
    <i name="hartreedc">  -1094.42619941 </i>
    <i name="XCdc">    190.55530345 </i>
    <i name="pawpsdc">   4312.99867763 </i>
    <i name="pawaedc">  -4324.64321615 </i>
    <i name="eentropy">      0.00000000 </i>
    <i name="bandstr">   -426.37902470 </i>
    <i name="atom">   2317.08167386 </i>
    <i name="e_fr_energy">    -97.32710170 </i>
    <i name="e_wo_entrp">    -97.32710170 </i>
    <i name="e_0_energy">    -97.32710170 </i>
   </energy>
  </scstep>
  <scstep>
   <time name="diag">    1.04    1.05</time>
   <time name="diis">    4.86    4.90</time>
   <time name="orth">    0.03    0.03</time>
   <time name="total">    6.14    6.19</time>
   <energy>
    <i name="e_fr_energy">    -97.32709034 </i>
    <i name="e_wo_entrp">    -97.32709034 </i>
    <i name="e_0_energy">    -97.32709034 </i>
   </energy>
  </scstep>
  <scstep>
   <time name="diag">    1.03    1.04</time>
   <time name="diis">    3.05    3.07</time>
   <time name="orth">    0.03    0.03</time>
   <time name="total">    4.31    4.35</time>
   <energy>
    <i name="e_fr_energy">    -97.32708980 </i>
    <i name="e_wo_entrp">    -97.32708980 </i>
    <i name="e_0_energy">    -97.32708980 </i>
   </energy>
  </scstep>
  <scstep>
   <time name="diag">    1.03    1.04</time>
   <time name="diis">    3.18    3.22</time>
   <time name="orth">    0.03    0.03</time>
   <time name="total">    4.30    4.34</time>
   <energy>
    <i name="alphaZ">     65.42746567 </i>
    <i name="ewald">  -1137.94178206 </i>
    <i name="hartreedc">  -1094.48415808 </i>
    <i name="XCdc">    190.55911458 </i>
    <i name="pawpsdc">   4311.21190482 </i>
    <i name="pawaedc">  -4322.85925870 </i>
    <i name="eentropy">      0.00000000 </i>
    <i name="bandstr">   -426.32204965 </i>
    <i name="atom">   2317.08167386 </i>
    <i name="e_fr_energy">    -97.32708955 </i>
    <i name="e_wo_entrp">    -97.32708955 </i>
    <i name="e_0_energy">    -97.32708955 </i>
   </energy>
  </scstep>
  <structure>
   <crystal>
    <varray name="basis" >
     <v>       5.51946626       0.00000000       0.00000000 </v>
     <v>       0.00000000       5.51946626       0.00000000 </v>
     <v>       0.00000000       0.00000000       4.64963585 </v>
    </varray>
    <i name="volume">    141.64886774 </i>
    <varray name="rec_basis" >
     <v>       0.18117694       0.00000000       0.00000000 </v>
     <v>       0.00000000       0.18117694       0.00000000 </v>
     <v>       0.00000000       0.00000000       0.21507061 </v>
    </varray>
   </crystal>
   <varray name="positions" >
    <v>       0.00000000       0.50000000       0.32659965 </v>
    <v>       0.50000000       0.00000000       0.67340035 </v>
    <v>       0.00000000       0.50000000       0.60180540 </v>
    <v>       0.50000000       0.00000000       0.39819460 </v>
    <v>       0.14763624       0.64763624       0.17656203 </v>
    <v>       0.64763624       0.85236376       0.82343797 </v>
    <v>       0.85236376       0.35236376       0.17656203 </v>
    <v>       0.35236376       0.14763624       0.82343797 </v>
    <v>       0.26242757       0.76242757       0.28193159 </v>
    <v>       0.76242757       0.73757243       0.71806841 </v>
    <v>       0.73757243       0.23757243       0.28193159 </v>
    <v>       0.23757243       0.26242757       0.71806841 </v>
    <v>       0.14537472       0.64537472       0.95729397 </v>
    <v>       0.64537472       0.85462528       0.04270603 </v>
    <v>       0.85462528       0.35462528       0.95729397 </v>
    <v>       0.35462528       0.14537472       0.04270603 </v>
   </varray>
  </structure>
  <varray name="forces" >
   <v>      -0.00000000      -0.00000000      -0.00259029 </v>
   <v>      -0.00000000      -0.00000000       0.00259029 </v>
   <v>      -0.00000000      -0.00000000      -0.00775830 </v>
   <v>      -0.00000000      -0.00000000       0.00775830 </v>
   <v>       0.00357539       0.00357539       0.00170270 </v>
   <v>       0.00357539      -0.00357539      -0.00170270 </v>
   <v>      -0.00357539      -0.00357539       0.00170270 </v>
   <v>      -0.00357539       0.00357539      -0.00170270 </v>
   <v>       0.00319634       0.00319634      -0.00074073 </v>
   <v>       0.00319634      -0.00319634       0.00074073 </v>
   <v>      -0.00319634      -0.00319634      -0.00074073 </v>
   <v>      -0.00319634       0.00319634       0.00074073 </v>
   <v>       0.00362193       0.00362193       0.00133964 </v>
   <v>       0.00362193      -0.00362193      -0.00133964 </v>
   <v>      -0.00362193      -0.00362193       0.00133964 </v>
   <v>      -0.00362193       0.00362193      -0.00133964 </v>
  </varray>
  <varray name="stress" >
   <v>      -0.49047122       0.00000000       0.00000000 </v>
   <v>       0.00000000      -0.49047122       0.00000000 </v>
   <v>       0.00000000       0.00000000       0.22817853 </v>
  </varray>
  <scstep>
   <time name="total">    8.94    9.03</time>
   <energy>
    <i name="e_fr_energy">   -180.30298659 </i>
    <i name="e_wo_entrp">   -180.30298659 </i>
    <i name="e_0_energy">   -180.30298659 </i>
   </energy>
  </scstep>
  <scstep>
   <time name="total">    7.10    7.15</time>
   <energy>
    <i name="e_fr_energy">   -177.34846211 </i>
    <i name="e_wo_entrp">   -177.34846211 </i>
    <i name="e_0_energy">   -177.34846211 </i>
   </energy>
  </scstep>
  <scstep>
   <time name="total">    7.42    7.48</time>
   <energy>
    <i name="e_fr_energy">   -177.44588744 </i>
    <i name="e_wo_entrp">   -177.44588744 </i>
    <i name="e_0_energy">   -177.44588744 </i>
   </energy>
  </scstep>
  <scstep>
   <time name="total">    6.24    6.29</time>
   <energy>
    <i name="e_fr_energy">   -177.44724861 </i>
    <i name="e_wo_entrp">   -177.44724861 </i>
    <i name="e_0_energy">   -177.44724861 </i>
   </energy>
  </scstep>
  <scstep>
   <time name="total">    6.25    6.30</time>
   <energy>
    <i name="e_fr_energy">   -177.44726816 </i>
    <i name="e_wo_entrp">   -177.44726816 </i>
    <i name="e_0_energy">   -177.44726816 </i>
   </energy>
  </scstep>
  <scstep>
   <time name="total">    6.41    6.46</time>
   <energy>
    <i name="e_fr_energy">   -177.44726281 </i>
    <i name="e_wo_entrp">   -177.44726281 </i>
    <i name="e_0_energy">   -177.44726281 </i>
   </energy>
  </scstep>
  <scstep>
   <time name="total">    6.45    6.51</time>
   <energy>
    <i name="e_fr_energy">   -177.44726275 </i>
    <i name="e_wo_entrp">   -177.44726275 </i>
    <i name="e_0_energy">   -177.44726275 </i>
   </energy>
  </scstep>
  <scstep>
   <time name="total">    8.92    8.99</time>
   <energy>
    <i name="e_fr_energy">   -178.56766696 </i>
    <i name="e_wo_entrp">   -178.56766696 </i>
    <i name="e_0_energy">   -178.56766696 </i>
   </energy>
  </scstep>
  <scstep>
   <time name="total">    7.23    7.29</time>
   <energy>
    <i name="e_fr_energy">   -175.61820339 </i>
    <i name="e_wo_entrp">   -175.61820339 </i>
    <i name="e_0_energy">   -175.61820339 </i>
   </energy>
  </scstep>
  <scstep>
   <time name="total">    8.37    8.48</time>
   <energy>
    <i name="e_fr_energy">   -175.71561258 </i>
    <i name="e_wo_entrp">   -175.71561258 </i>
    <i name="e_0_energy">   -175.71561258 </i>
   </energy>
  </scstep>
  <scstep>
   <time name="total">    7.13    7.23</time>
   <energy>
    <i name="e_fr_energy">   -175.71697217 </i>
    <i name="e_wo_entrp">   -175.71697217 </i>
    <i name="e_0_energy">   -175.71697217 </i>
   </energy>
  </scstep>
  <scstep>
   <time name="total">    6.89    6.98</time>
   <energy>
    <i name="e_fr_energy">   -175.71698364 </i>
    <i name="e_wo_entrp">   -175.71698364 </i>
    <i name="e_0_energy">   -175.71698364 </i>
   </energy>
  </scstep>
  <scstep>
   <time name="total">    7.35    7.45</time>
   <energy>
    <i name="e_fr_energy">   -175.71698463 </i>
    <i name="e_wo_entrp">   -175.71698463 </i>
    <i name="e_0_energy">   -175.71698463 </i>
   </energy>
  </scstep>
  <scstep>
   <time name="total">    7.28    7.38</time>
   <energy>
    <i name="e_fr_energy">   -175.71698450 </i>
    <i name="e_wo_entrp">   -175.71698450 </i>
    <i name="e_0_energy">   -175.71698450 </i>
   </energy>
  </scstep>
  <scstep>
   <time name="total">   10.76   10.89</time>
   <energy>
    <i name="e_fr_energy">   -199.44985037 </i>
    <i name="e_wo_entrp">   -199.44985037 </i>
    <i name="e_0_energy">   -199.44985037 </i>
   </energy>
  </scstep>
  <scstep>
   <time name="total">    8.12    8.20</time>
   <energy>
    <i name="e_fr_energy">   -175.24066566 </i>
    <i name="e_wo_entrp">   -175.24066566 </i>
    <i name="e_0_energy">   -175.24066566 </i>
   </energy>
  </scstep>
  <scstep>
   <time name="total">    8.51    8.61</time>
   <energy>
    <i name="e_fr_energy">   -175.35464867 </i>
    <i name="e_wo_entrp">   -175.35464867 </i>
    <i name="e_0_energy">   -175.35464867 </i>
   </energy>
  </scstep>
  <scstep>
   <time name="total">    6.97    7.05</time>
   <energy>
    <i name="e_fr_energy">   -175.35644340 </i>
    <i name="e_wo_entrp">   -175.35644340 </i>
    <i name="e_0_energy">   -175.35644340 </i>
   </energy>
  </scstep>
  <scstep>
   <time name="total">    6.53    6.60</time>
   <energy>
    <i name="e_fr_energy">   -175.35646685 </i>
    <i name="e_wo_entrp">   -175.35646685 </i>
    <i name="e_0_energy">   -175.35646685 </i>
   </energy>
  </scstep>
  <scstep>
   <time name="total">    6.92    7.00</time>
   <energy>
    <i name="e_fr_energy">   -175.35646635 </i>
    <i name="e_wo_entrp">   -175.35646635 </i>
    <i name="e_0_energy">   -175.35646635 </i>
   </energy>
  </scstep>
  <scstep>
   <time name="total">    6.95    7.03</time>
   <energy>
    <i name="e_fr_energy">   -175.35646599 </i>
    <i name="e_wo_entrp">   -175.35646599 </i>
    <i name="e_0_energy">   -175.35646599 </i>
   </energy>
  </scstep>
  <kpoints>
   <generation param="Gamma">
    <v type="int" name="divisions">       6        6        7 </v>
    <v name="usershift">      0.00000000       0.00000000       0.00000000 </v>
    <v name="genvec1">      0.16666667       0.00000000       0.00000000 </v>
    <v name="genvec2">      0.00000000       0.16666667       0.00000000 </v>
    <v name="genvec3">      0.00000000       0.00000000       0.14285714 </v>
    <v name="shift">      0.00000000       0.00000000       0.00000000 </v>
   </generation>
   <varray name="kpointlist" >
    <v>       0.00000000       0.00000000       0.00000000 </v>
    <v>       0.16666667       0.00000000       0.00000000 </v>
    <v>       0.33333333       0.00000000       0.00000000 </v>
    <v>       0.50000000       0.00000000       0.00000000 </v>
    <v>       0.00000000       0.16666667       0.00000000 </v>
    <v>       0.16666667       0.16666667       0.00000000 </v>
    <v>       0.33333333       0.16666667       0.00000000 </v>
    <v>       0.50000000       0.16666667       0.00000000 </v>
    <v>       0.00000000       0.33333333       0.00000000 </v>
    <v>       0.16666667       0.33333333       0.00000000 </v>
    <v>       0.33333333       0.33333333       0.00000000 </v>
    <v>       0.50000000       0.33333333       0.00000000 </v>
    <v>       0.00000000       0.50000000       0.00000000 </v>
    <v>       0.16666667       0.50000000       0.00000000 </v>
    <v>       0.33333333       0.50000000       0.00000000 </v>
    <v>       0.50000000       0.50000000       0.00000000 </v>
    <v>       0.00000000       0.00000000       0.14285714 </v>
    <v>       0.16666667       0.00000000       0.14285714 </v>
    <v>       0.33333333       0.00000000       0.14285714 </v>
    <v>       0.50000000       0.00000000       0.14285714 </v>
    <v>       0.00000000       0.16666667       0.14285714 </v>
    <v>       0.16666667       0.16666667       0.14285714 </v>
    <v>       0.33333333       0.16666667       0.14285714 </v>
    <v>       0.50000000       0.16666667       0.14285714 </v>
    <v>       0.00000000       0.33333333       0.14285714 </v>
    <v>       0.16666667       0.33333333       0.14285714 </v>
    <v>       0.33333333       0.33333333       0.14285714 </v>
    <v>       0.50000000       0.33333333       0.14285714 </v>
    <v>       0.00000000       0.50000000       0.14285714 </v>
    <v>       0.16666667       0.50000000       0.14285714 </v>
    <v>       0.33333333       0.50000000       0.14285714 </v>
    <v>       0.50000000       0.50000000       0.14285714 </v>
    <v>       0.00000000      -0.33333333       0.14285714 </v>
    <v>       0.16666667      -0.33333333       0.14285714 </v>
    <v>       0.33333333      -0.33333333       0.14285714 </v>
    <v>       0.50000000      -0.33333333       0.14285714 </v>
    <v>       0.00000000      -0.16666667       0.14285714 </v>
    <v>       0.16666667      -0.16666667       0.14285714 </v>
    <v>       0.33333333      -0.16666667       0.14285714 </v>
    <v>       0.50000000      -0.16666667       0.14285714 </v>
    <v>       0.00000000       0.00000000       0.28571429 </v>
    <v>       0.16666667       0.00000000       0.28571429 </v>
    <v>       0.33333333       0.00000000       0.28571429 </v>
    <v>       0.50000000       0.00000000       0.28571429 </v>
    <v>       0.00000000       0.16666667       0.28571429 </v>
    <v>       0.16666667       0.16666667       0.28571429 </v>
    <v>       0.33333333       0.16666667       0.28571429 </v>
    <v>       0.50000000       0.16666667       0.28571429 </v>
    <v>       0.00000000       0.33333333       0.28571429 </v>
    <v>       0.16666667       0.33333333       0.28571429 </v>
    <v>       0.33333333       0.33333333       0.28571429 </v>
    <v>       0.50000000       0.33333333       0.28571429 </v>
    <v>       0.00000000       0.50000000       0.28571429 </v>
    <v>       0.16666667       0.50000000       0.28571429 </v>
    <v>       0.33333333       0.50000000       0.28571429 </v>
    <v>       0.50000000       0.50000000       0.28571429 </v>
    <v>       0.00000000      -0.33333333       0.28571429 </v>
    <v>       0.16666667      -0.33333333       0.28571429 </v>
    <v>       0.33333333      -0.33333333       0.28571429 </v>
    <v>       0.50000000      -0.33333333       0.28571429 </v>
    <v>       0.00000000      -0.16666667       0.28571429 </v>
    <v>       0.16666667      -0.16666667       0.28571429 </v>
    <v>       0.33333333      -0.16666667       0.28571429 </v>
    <v>       0.50000000      -0.16666667       0.28571429 </v>
    <v>       0.00000000       0.00000000       0.42857143 </v>
    <v>       0.16666667       0.00000000       0.42857143 </v>
    <v>       0.33333333       0.00000000       0.42857143 </v>
    <v>       0.50000000       0.00000000       0.42857143 </v>
    <v>       0.00000000       0.16666667       0.42857143 </v>
    <v>       0.16666667       0.16666667       0.42857143 </v>
    <v>       0.33333333       0.16666667       0.42857143 </v>
    <v>       0.50000000       0.16666667       0.42857143 </v>
    <v>       0.00000000       0.33333333       0.42857143 </v>
    <v>       0.16666667       0.33333333       0.42857143 </v>
    <v>       0.33333333       0.33333333       0.42857143 </v>
    <v>       0.50000000       0.33333333       0.42857143 </v>
    <v>       0.00000000       0.50000000       0.42857143 </v>
    <v>       0.16666667       0.50000000       0.42857143 </v>
    <v>       0.33333333       0.50000000       0.42857143 </v>
    <v>       0.50000000       0.50000000       0.42857143 </v>
    <v>       0.00000000      -0.33333333       0.42857143 </v>
    <v>       0.16666667      -0.33333333       0.42857143 </v>
    <v>       0.33333333      -0.33333333       0.42857143 </v>
    <v>       0.50000000      -0.33333333       0.42857143 </v>
    <v>       0.00000000      -0.16666667       0.42857143 </v>
    <v>       0.16666667      -0.16666667       0.42857143 </v>
    <v>       0.33333333      -0.16666667       0.42857143 </v>
    <v>       0.50000000      -0.16666667       0.42857143 </v>
   </varray>
   <varray name="weights" >
    <v>       0.00396825 </v>
    <v>       0.00793651 </v>
    <v>       0.00793651 </v>
    <v>       0.00396825 </v>
    <v>       0.00793651 </v>
    <v>       0.01587302 </v>
    <v>       0.01587302 </v>
    <v>       0.00793651 </v>
    <v>       0.00793651 </v>
    <v>       0.01587302 </v>
    <v>       0.01587302 </v>
    <v>       0.00793651 </v>
    <v>       0.00396825 </v>
    <v>       0.00793651 </v>
    <v>       0.00793651 </v>
    <v>       0.00396825 </v>
    <v>       0.00793651 </v>
    <v>       0.01587302 </v>
    <v>       0.01587302 </v>
    <v>       0.00793651 </v>
    <v>       0.00793651 </v>
    <v>       0.01587302 </v>
    <v>       0.01587302 </v>
    <v>       0.00793651 </v>
    <v>       0.00793651 </v>
    <v>       0.01587302 </v>
    <v>       0.01587302 </v>
    <v>       0.00793651 </v>
    <v>       0.00793651 </v>
    <v>       0.01587302 </v>
    <v>       0.01587302 </v>
    <v>       0.00793651 </v>
    <v>       0.00793651 </v>
    <v>       0.01587302 </v>
    <v>       0.01587302 </v>
    <v>       0.00793651 </v>
    <v>       0.00793651 </v>
    <v>       0.01587302 </v>
    <v>       0.01587302 </v>
    <v>       0.00793651 </v>
    <v>       0.00793651 </v>
    <v>       0.01587302 </v>
    <v>       0.01587302 </v>
    <v>       0.00793651 </v>
    <v>       0.00793651 </v>
    <v>       0.01587302 </v>
    <v>       0.01587302 </v>
    <v>       0.00793651 </v>
    <v>       0.00793651 </v>
    <v>       0.01587302 </v>
    <v>       0.01587302 </v>
    <v>       0.00793651 </v>
    <v>       0.00793651 </v>
    <v>       0.01587302 </v>
    <v>       0.01587302 </v>
    <v>       0.00793651 </v>
    <v>       0.00793651 </v>
    <v>       0.01587302 </v>
    <v>       0.01587302 </v>
    <v>       0.00793651 </v>
    <v>       0.00793651 </v>
    <v>       0.01587302 </v>
    <v>       0.01587302 </v>
    <v>       0.00793651 </v>
    <v>       0.00793651 </v>
    <v>       0.01587302 </v>
    <v>       0.01587302 </v>
    <v>       0.00793651 </v>
    <v>       0.00793651 </v>
    <v>       0.01587302 </v>
    <v>       0.01587302 </v>
    <v>       0.00793651 </v>
    <v>       0.00793651 </v>
    <v>       0.01587302 </v>
    <v>       0.01587302 </v>
    <v>       0.00793651 </v>
    <v>       0.00793651 </v>
    <v>       0.01587302 </v>
    <v>       0.01587302 </v>
    <v>       0.00793651 </v>
    <v>       0.00793651 </v>
    <v>       0.01587302 </v>
    <v>       0.01587302 </v>
    <v>       0.00793651 </v>
    <v>       0.00793651 </v>
    <v>       0.01587302 </v>
    <v>       0.01587302 </v>
    <v>       0.00793651 </v>
   </varray>
   <varray name="tetrahedronlist"  type="int" >
    <v type="int" >        2        1        2        6       17 </v>
    <v type="int" >        2        1        5        6       17 </v>
    <v type="int" >        2        5        6       17       21 </v>
    <v type="int" >        2        2        6       17       18 </v>
    <v type="int" >        2        6       17       18       22 </v>
    <v type="int" >        2        6       17       21       22 </v>
    <v type="int" >        2        2        3        7       18 </v>
    <v type="int" >        2        2        6        7       18 </v>
    <v type="int" >        2        6        7       18       22 </v>
    <v type="int" >        2        3        7       18       19 </v>
    <v type="int" >        2        7       18       19       23 </v>
    <v type="int" >        2        7       18       22       23 </v>
    <v type="int" >        2        3        4        8       19 </v>
    <v type="int" >        2        3        7        8       19 </v>
    <v type="int" >        2        7        8       19       23 </v>
    <v type="int" >        2        4        8       19       20 </v>
    <v type="int" >        2        8       19       20       24 </v>
    <v type="int" >        2        8       19       23       24 </v>
    <v type="int" >        2        3        4        7       20 </v>
    <v type="int" >        2        4        7        8       20 </v>
    <v type="int" >        2        7        8       20       24 </v>
    <v type="int" >        2        3        7       19       20 </v>
    <v type="int" >        2        7       19       20       23 </v>
    <v type="int" >        2        7       20       23       24 </v>
    <v type="int" >        2        2        3        6       19 </v>
    <v type="int" >        2        3        6        7       19 </v>
    <v type="int" >        2        6        7       19       23 </v>
    <v type="int" >        2        2        6       18       19 </v>
    <v type="int" >        2        6       18       19       22 </v>
    <v type="int" >        2        6       19       22       23 </v>
    <v type="int" >        2        1        2        5       18 </v>
    <v type="int" >        2        2        5        6       18 </v>
    <v type="int" >        2        5        6       18       22 </v>
    <v type="int" >        2        1        5       17       18 </v>
    <v type="int" >        2        5       17       18       21 </v>
    <v type="int" >        2        5       18       21       22 </v>
    <v type="int" >        2        5        6       10       21 </v>
    <v type="int" >        2        5        9       10       21 </v>
    <v type="int" >        2        9       10       21       25 </v>
    <v type="int" >        2        6       10       21       22 </v>
    <v type="int" >        2       10       21       22       26 </v>
    <v type="int" >        2       10       21       25       26 </v>
    <v type="int" >        2        6        7       11       22 </v>
    <v type="int" >        2        6       10       11       22 </v>
    <v type="int" >        2       10       11       22       26 </v>
    <v type="int" >        2        7       11       22       23 </v>
    <v type="int" >        2       11       22       23       27 </v>
    <v type="int" >        2       11       22       26       27 </v>
    <v type="int" >        2        7        8       12       23 </v>
    <v type="int" >        2        7       11       12       23 </v>
    <v type="int" >        2       11       12       23       27 </v>
    <v type="int" >        2        8       12       23       24 </v>
    <v type="int" >        2       12       23       24       28 </v>
    <v type="int" >        2       12       23       27       28 </v>
    <v type="int" >        2        7        8       11       24 </v>
    <v type="int" >        2        8       11       12       24 </v>
    <v type="int" >        2       11       12       24       28 </v>
    <v type="int" >        2        7       11       23       24 </v>
    <v type="int" >        2       11       23       24       27 </v>
    <v type="int" >        2       11       24       27       28 </v>
    <v type="int" >        2        6        7       10       23 </v>
    <v type="int" >        2        7       10       11       23 </v>
    <v type="int" >        2       10       11       23       27 </v>
    <v type="int" >        2        6       10       22       23 </v>
    <v type="int" >        2       10       22       23       26 </v>
    <v type="int" >        2       10       23       26       27 </v>
    <v type="int" >        2        5        6        9       22 </v>
    <v type="int" >        2        6        9       10       22 </v>
    <v type="int" >        2        9       10       22       26 </v>
    <v type="int" >        2        5        9       21       22 </v>
    <v type="int" >        2        9       21       22       25 </v>
    <v type="int" >        2        9       22       25       26 </v>
    <v type="int" >        2        9       10       14       25 </v>
    <v type="int" >        2        9       13       14       25 </v>
    <v type="int" >        2       13       14       25       29 </v>
    <v type="int" >        2       10       14       25       26 </v>
    <v type="int" >        2       14       25       26       30 </v>
    <v type="int" >        2       14       25       29       30 </v>
    <v type="int" >        2       10       11       15       26 </v>
    <v type="int" >        2       10       14       15       26 </v>
    <v type="int" >        2       14       15       26       30 </v>
    <v type="int" >        2       11       15       26       27 </v>
    <v type="int" >        2       15       26       27       31 </v>
    <v type="int" >        2       15       26       30       31 </v>
    <v type="int" >        2       11       12       16       27 </v>
    <v type="int" >        2       11       15       16       27 </v>
    <v type="int" >        2       15       16       27       31 </v>
    <v type="int" >        2       12       16       27       28 </v>
    <v type="int" >        2       16       27       28       32 </v>
    <v type="int" >        2       16       27       31       32 </v>
    <v type="int" >        2       11       12       15       28 </v>
    <v type="int" >        2       12       15       16       28 </v>
    <v type="int" >        2       15       16       28       32 </v>
    <v type="int" >        2       11       15       27       28 </v>
    <v type="int" >        2       15       27       28       31 </v>
    <v type="int" >        2       15       28       31       32 </v>
    <v type="int" >        2       10       11       14       27 </v>
    <v type="int" >        2       11       14       15       27 </v>
    <v type="int" >        2       14       15       27       31 </v>
    <v type="int" >        2       10       14       26       27 </v>
    <v type="int" >        2       14       26       27       30 </v>
    <v type="int" >        2       14       27       30       31 </v>
    <v type="int" >        2        9       10       13       26 </v>
    <v type="int" >        2       10       13       14       26 </v>
    <v type="int" >        2       13       14       26       30 </v>
    <v type="int" >        2        9       13       25       26 </v>
    <v type="int" >        2       13       25       26       29 </v>
    <v type="int" >        2       13       26       29       30 </v>
    <v type="int" >        2       10       13       14       29 </v>
    <v type="int" >        2        9       10       13       29 </v>
    <v type="int" >        2        9       10       29       33 </v>
    <v type="int" >        2       10       14       29       30 </v>
    <v type="int" >        2       10       29       30       34 </v>
    <v type="int" >        2       10       29       33       34 </v>
    <v type="int" >        2       11       14       15       30 </v>
    <v type="int" >        2       10       11       14       30 </v>
    <v type="int" >        2       10       11       30       34 </v>
    <v type="int" >        2       11       15       30       31 </v>
    <v type="int" >        2       11       30       31       35 </v>
    <v type="int" >        2       11       30       34       35 </v>
    <v type="int" >        2       12       15       16       31 </v>
    <v type="int" >        2       11       12       15       31 </v>
    <v type="int" >        2       11       12       31       35 </v>
    <v type="int" >        2       12       16       31       32 </v>
    <v type="int" >        2       12       31       32       36 </v>
    <v type="int" >        2       12       31       35       36 </v>
    <v type="int" >        2       11       15       16       32 </v>
    <v type="int" >        2       11       12       16       32 </v>
    <v type="int" >        2       11       12       32       36 </v>
    <v type="int" >        2       11       15       31       32 </v>
    <v type="int" >        2       11       31       32       35 </v>
    <v type="int" >        2       11       32       35       36 </v>
    <v type="int" >        2       10       14       15       31 </v>
    <v type="int" >        2       10       11       15       31 </v>
    <v type="int" >        2       10       11       31       35 </v>
    <v type="int" >        2       10       14       30       31 </v>
    <v type="int" >        2       10       30       31       34 </v>
    <v type="int" >        2       10       31       34       35 </v>
    <v type="int" >        2        9       13       14       30 </v>
    <v type="int" >        2        9       10       14       30 </v>
    <v type="int" >        2        9       10       30       34 </v>
    <v type="int" >        2        9       13       29       30 </v>
    <v type="int" >        2        9       29       30       33 </v>
    <v type="int" >        2        9       30       33       34 </v>
    <v type="int" >        2        6        9       10       33 </v>
    <v type="int" >        2        5        6        9       33 </v>
    <v type="int" >        2        5        6       33       37 </v>
    <v type="int" >        2        6       10       33       34 </v>
    <v type="int" >        2        6       33       34       38 </v>
[...]
       <r>   11.2927    0.0000 </r>
       <r>   11.7934    0.0000 </r>
      </set>
      <set comment="kpoint 39">
       <r>  -21.2084    1.0000 </r>
       <r>  -21.2040    1.0000 </r>
       <r>  -18.1866    1.0000 </r>
       <r>  -18.1710    1.0000 </r>
       <r>  -16.8230    1.0000 </r>
       <r>  -16.7990    1.0000 </r>
       <r>  -10.2376    1.0000 </r>
       <r>  -10.2228    1.0000 </r>
       <r>   -8.7665    1.0000 </r>
       <r>   -8.7350    1.0000 </r>
       <r>   -8.0173    1.0000 </r>
       <r>   -7.9814    1.0000 </r>
       <r>   -7.0272    1.0000 </r>
       <r>   -7.0141    1.0000 </r>
       <r>   -6.0989    1.0000 </r>
       <r>   -6.0866    1.0000 </r>
       <r>   -5.4744    1.0000 </r>
       <r>   -5.4702    1.0000 </r>
       <r>   -2.0034    1.0000 </r>
       <r>   -2.0009    1.0000 </r>
       <r>   -1.4941    1.0000 </r>
       <r>   -1.4894    1.0000 </r>
       <r>   -1.2157    1.0000 </r>
       <r>   -1.2070    1.0000 </r>
       <r>    4.9809    0.0000 </r>
       <r>    4.9824    0.0000 </r>
       <r>    6.8404    0.0000 </r>
       <r>    6.8496    0.0000 </r>
       <r>    7.6087    0.0000 </r>
       <r>    7.6322    0.0000 </r>
       <r>    8.0820    0.0000 </r>
       <r>    8.0900    0.0000 </r>
       <r>    8.6966    0.0000 </r>
       <r>    8.7178    0.0000 </r>
       <r>   10.2284    0.0000 </r>
       <r>   10.2816    0.0000 </r>
       <r>   10.9134    0.0000 </r>
       <r>   10.9368    0.0000 </r>
       <r>   11.6448    0.0000 </r>
       <r>   11.6501    0.0000 </r>
      </set>
      <set comment="kpoint 40">
       <r>  -21.2082    1.0000 </r>
       <r>  -21.2038    1.0000 </r>
       <r>  -18.1803    1.0000 </r>
       <r>  -18.1648    1.0000 </r>
       <r>  -16.8333    1.0000 </r>
       <r>  -16.8093    1.0000 </r>
       <r>  -10.2251    1.0000 </r>
       <r>  -10.2101    1.0000 </r>
       <r>   -8.7739    1.0000 </r>
       <r>   -8.7424    1.0000 </r>
       <r>   -7.9900    1.0000 </r>
       <r>   -7.9532    1.0000 </r>
       <r>   -7.0423    1.0000 </r>
       <r>   -7.0303    1.0000 </r>
       <r>   -6.1554    1.0000 </r>
       <r>   -6.1417    1.0000 </r>
       <r>   -5.4622    1.0000 </r>
       <r>   -5.4575    1.0000 </r>
       <r>   -1.9736    1.0000 </r>
       <r>   -1.9713    1.0000 </r>
       <r>   -1.4756    1.0000 </r>
       <r>   -1.4709    1.0000 </r>
       <r>   -1.2027    1.0000 </r>
       <r>   -1.1941    1.0000 </r>
       <r>    4.9694    0.0000 </r>
       <r>    4.9706    0.0000 </r>
       <r>    7.0836    0.0000 </r>
       <r>    7.0886    0.0000 </r>
       <r>    7.4151    0.0000 </r>
       <r>    7.4381    0.0000 </r>
       <r>    8.1991    0.0000 </r>
       <r>    8.2135    0.0000 </r>
       <r>    8.3440    0.0000 </r>
       <r>    8.3591    0.0000 </r>
       <r>   10.6276    0.0000 </r>
       <r>   10.7097    0.0000 </r>
       <r>   10.7196    0.0000 </r>
       <r>   10.7247    0.0000 </r>
       <r>   12.1828    0.0000 </r>
       <r>   12.1941    0.0000 </r>
      </set>
     </set>
    </set>
   </array>
  </eigenvalues>
  <separator name="orbital magnetization" >
   <v name="MAGDIPOLOUT">      0.00000000      0.00000000      0.00000000</v>
  </separator>
  <dos>
   <i name="efermi">     -0.88772458 </i>
   <total>
    <array>
     <dimension dim="1">gridpoints</dimension>
     <dimension dim="2">spin</dimension>
     <field>energy</field>
     <field>total</field>
     <field>integrated</field>
     <set>
      <set comment="spin 1">
       <r>   -23.1092     0.0000     0.0000 </r>
       <r>   -22.9859     0.0000     0.0000 </r>
       <r>   -22.8626     0.0000     0.0000 </r>
       <r>   -22.7393     0.0000     0.0000 </r>
       <r>   -22.6161     0.0000     0.0000 </r>
       <r>   -22.4928     0.0000     0.0000 </r>
       <r>   -22.3695     0.0000     0.0000 </r>
       <r>   -22.2462     0.0000     0.0000 </r>
       <r>   -22.1229     0.0000     0.0000 </r>
       <r>   -21.9996     0.0000     0.0000 </r>
       <r>   -21.8764     0.0000     0.0000 </r>
       <r>   -21.7531     0.0000     0.0000 </r>
       <r>   -21.6298     0.0000     0.0000 </r>
       <r>   -21.5065     0.0000     0.0000 </r>
       <r>   -21.3832     4.8965     0.1115 </r>
       <r>   -21.2600    23.5441     1.9182 </r>
       <r>   -21.1367     4.4027     3.9764 </r>
       <r>   -21.0134     0.0000     4.0000 </r>
       <r>   -20.8901     0.0000     4.0000 </r>
       <r>   -20.7668     0.0000     4.0000 </r>
       <r>   -20.6436     0.0000     4.0000 </r>
       <r>   -20.5203     0.0000     4.0000 </r>
       <r>   -20.3970     0.0000     4.0000 </r>
       <r>   -20.2737     0.0000     4.0000 </r>
       <r>   -20.1504     0.0000     4.0000 </r>
       <r>   -20.0271     0.0000     4.0000 </r>
       <r>   -19.9039     0.0000     4.0000 </r>
       <r>   -19.7806     0.0000     4.0000 </r>
       <r>   -19.6573     0.0000     4.0000 </r>
       <r>   -19.5340     0.0000     4.0000 </r>
       <r>   -19.4107     0.0000     4.0000 </r>
       <r>   -19.2875     0.0000     4.0000 </r>
       <r>   -19.1642     0.0000     4.0000 </r>
       <r>   -19.0409     0.0000     4.0000 </r>
       <r>   -18.9176     0.0000     4.0000 </r>
       <r>   -18.7943     0.0000     4.0000 </r>
       <r>   -18.6711     0.0000     4.0000 </r>
       <r>   -18.5478     0.0000     4.0000 </r>
       <r>   -18.4245     0.0000     4.0000 </r>
       <r>   -18.3012     2.7241     4.1549 </r>
       <r>   -18.1779     5.4356     4.6966 </r>
       <r>   -18.0546     8.6457     5.6737 </r>
       <r>   -17.9314    11.9528     6.9053 </r>
       <r>   -17.8081     0.0000     8.0000 </r>
       <r>   -17.6848     0.0000     8.0000 </r>
       <r>   -17.5615     0.0000     8.0000 </r>
       <r>   -17.4382     0.0000     8.0000 </r>
       <r>   -17.3150     0.0000     8.0000 </r>
       <r>   -17.1917     0.0000     8.0000 </r>
       <r>   -17.0684     0.0000     8.0000 </r>
       <r>   -16.9451     0.0000     8.0000 </r>
       <r>   -16.8218    56.5253     9.5417 </r>
       <r>   -16.6985     0.0000    12.0000 </r>
       <r>   -16.5753     0.0000    12.0000 </r>
       <r>   -16.4520     0.0000    12.0000 </r>
       <r>   -16.3287     0.0000    12.0000 </r>
       <r>   -16.2054     0.0000    12.0000 </r>
       <r>   -16.0821     0.0000    12.0000 </r>
       <r>   -15.9589     0.0000    12.0000 </r>
       <r>   -15.8356     0.0000    12.0000 </r>
       <r>   -15.7123     0.0000    12.0000 </r>
       <r>   -15.5890     0.0000    12.0000 </r>
       <r>   -15.4657     0.0000    12.0000 </r>
       <r>   -15.3425     0.0000    12.0000 </r>
       <r>   -15.2192     0.0000    12.0000 </r>
       <r>   -15.0959     0.0000    12.0000 </r>
       <r>   -14.9726     0.0000    12.0000 </r>
       <r>   -14.8493     0.0000    12.0000 </r>
       <r>   -14.7260     0.0000    12.0000 </r>
       <r>   -14.6028     0.0000    12.0000 </r>
       <r>   -14.4795     0.0000    12.0000 </r>
       <r>   -14.3562     0.0000    12.0000 </r>
       <r>   -14.2329     0.0000    12.0000 </r>
       <r>   -14.1096     0.0000    12.0000 </r>
       <r>   -13.9864     0.0000    12.0000 </r>
       <r>   -13.8631     0.0000    12.0000 </r>
       <r>   -13.7398     0.0000    12.0000 </r>
       <r>   -13.6165     0.0000    12.0000 </r>
       <r>   -13.4932     0.0000    12.0000 </r>
       <r>   -13.3700     0.0000    12.0000 </r>
       <r>   -13.2467     0.0000    12.0000 </r>
       <r>   -13.1234     0.0000    12.0000 </r>
       <r>   -13.0001     0.0000    12.0000 </r>
       <r>   -12.8768     0.0000    12.0000 </r>
       <r>   -12.7535     0.0000    12.0000 </r>
       <r>   -12.6303     0.0000    12.0000 </r>
       <r>   -12.5070     0.0000    12.0000 </r>
       <r>   -12.3837     0.0000    12.0000 </r>
       <r>   -12.2604     0.0000    12.0000 </r>
       <r>   -12.1371     0.0000    12.0000 </r>
       <r>   -12.0139     0.0000    12.0000 </r>
       <r>   -11.8906     0.0000    12.0000 </r>
       <r>   -11.7673     0.0000    12.0000 </r>
       <r>   -11.6440     0.0000    12.0000 </r>
       <r>   -11.5207     0.0000    12.0000 </r>
       <r>   -11.3975     0.0000    12.0000 </r>
       <r>   -11.2742     0.0000    12.0000 </r>
       <r>   -11.1509     0.0000    12.0000 </r>
       <r>   -11.0276     0.0000    12.0000 </r>
       <r>   -10.9043     0.0000    12.0000 </r>
       <r>   -10.7810     1.2953    12.0468 </r>
       <r>   -10.6578     3.2260    12.3237 </r>
       <r>   -10.5345     5.5551    12.9016 </r>
       <r>   -10.4112     7.0567    13.6698 </r>
       <r>   -10.2879     8.7122    14.7347 </r>
       <r>   -10.1646     5.2521    15.7070 </r>
       <r>   -10.0414     0.0000    16.0000 </r>
       <r>    -9.9181     0.0000    16.0000 </r>
       <r>    -9.7948     0.0000    16.0000 </r>
       <r>    -9.6715     0.0000    16.0000 </r>
       <r>    -9.5482     0.0000    16.0000 </r>
       <r>    -9.4250     0.0000    16.0000 </r>
       <r>    -9.3017     0.9417    16.0530 </r>
       <r>    -9.1784     1.6325    16.2243 </r>
       <r>    -9.0551     2.1176    16.4520 </r>
       <r>    -8.9318     2.8463    16.7515 </r>
       <r>    -8.8085     4.7724    17.2005 </r>
       <r>    -8.6853    15.8822    19.2750 </r>
       <r>    -8.5620     2.1150    19.9788 </r>
       <r>    -8.4387    13.4682    21.1573 </r>
       <r>    -8.3154     3.5803    22.5364 </r>
       <r>    -8.1921     2.9084    22.9257 </r>
       <r>    -8.0689     4.2278    23.4531 </r>
       <r>    -7.9456     1.4573    23.9160 </r>
       <r>    -7.8223     0.0000    24.0000 </r>
       <r>    -7.6990     0.0000    24.0000 </r>
       <r>    -7.5757     0.0000    24.0000 </r>
       <r>    -7.4525     0.0000    24.0000 </r>
       <r>    -7.3292     0.0000    24.0000 </r>
       <r>    -7.2059     0.0000    24.0000 </r>
       <r>    -7.0826     1.9188    24.0072 </r>
       <r>    -6.9593     9.8777    25.8881 </r>
       <r>    -6.8360     6.1254    26.8232 </r>
       <r>    -6.7128     6.4074    27.5328 </r>
       <r>    -6.5895     0.0943    27.9999 </r>
       <r>    -6.4662     0.0000    28.0000 </r>
       <r>    -6.3429     0.0000    28.0000 </r>
       <r>    -6.2196     1.7759    28.0337 </r>
       <r>    -6.0964     2.4211    28.2920 </r>
       <r>    -5.9731     3.3675    28.6376 </r>
       <r>    -5.8498     6.3581    29.2097 </r>
       <r>    -5.7265     9.2097    30.0315 </r>
       <r>    -5.6032     6.6459    30.9411 </r>
       <r>    -5.4800    14.6463    32.3296 </r>
       <r>    -5.3567     5.2490    33.6418 </r>
       <r>    -5.2334     2.9683    34.0922 </r>
       <r>    -5.1101     3.1455    34.4639 </r>
       <r>    -4.9868     4.1158    34.8995 </r>
       <r>    -4.8635     4.0942    35.4162 </r>
       <r>    -4.7403     2.2555    35.8271 </r>
       <r>    -4.6170     0.5082    35.9869 </r>
       <r>    -4.4937     0.0000    36.0000 </r>
       <r>    -4.3704     0.0000    36.0000 </r>
       <r>    -4.2471     0.0000    36.0000 </r>
       <r>    -4.1239     0.0000    36.0000 </r>
       <r>    -4.0006     0.0000    36.0000 </r>
       <r>    -3.8773     0.0000    36.0000 </r>
       <r>    -3.7540     0.0000    36.0000 </r>
       <r>    -3.6307     0.0000    36.0000 </r>
       <r>    -3.5075     0.0000    36.0000 </r>
       <r>    -3.3842     0.0000    36.0000 </r>
       <r>    -3.2609     0.0000    36.0000 </r>
       <r>    -3.1376     0.0000    36.0000 </r>
       <r>    -3.0143     0.0000    36.0000 </r>
       <r>    -2.8910     0.0000    36.0000 </r>
       <r>    -2.7678     0.0000    36.0000 </r>
       <r>    -2.6445     0.0000    36.0000 </r>
       <r>    -2.5212     0.0000    36.0000 </r>
       <r>    -2.3979     0.0000    36.0000 </r>
       <r>    -2.2746     0.0000    36.0000 </r>
       <r>    -2.1514    11.0085    36.5583 </r>
       <r>    -2.0281    23.2334    38.3152 </r>
       <r>    -1.9048     2.9412    40.1085 </r>
       <r>    -1.7815    10.6903    40.7406 </r>
       <r>    -1.6582    10.3058    42.6572 </r>
       <r>    -1.5350    10.4724    43.8596 </r>
       <r>    -1.4117     5.5065    44.9261 </r>
       <r>    -1.2884     6.4353    45.6324 </r>
       <r>    -1.1651     9.2378    46.8169 </r>
       <r>    -1.0418     3.3283    47.8432 </r>
       <r>    -0.9185     0.0000    48.0000 </r>
       <r>    -0.7953     0.0000    48.0000 </r>
       <r>    -0.6720     0.0000    48.0000 </r>
       <r>    -0.5487     0.0000    48.0000 </r>
       <r>    -0.4254     0.0000    48.0000 </r>
       <r>    -0.3021     0.0000    48.0000 </r>
       <r>    -0.1789     0.0000    48.0000 </r>
       <r>    -0.0556     0.0000    48.0000 </r>
       <r>     0.0677     0.0000    48.0000 </r>
       <r>     0.1910     0.0000    48.0000 </r>
       <r>     0.3143     0.0000    48.0000 </r>
       <r>     0.4375     0.0000    48.0000 </r>
       <r>     0.5608     0.0000    48.0000 </r>
       <r>     0.6841     0.0000    48.0000 </r>
       <r>     0.8074     0.0000    48.0000 </r>
       <r>     0.9307     0.0000    48.0000 </r>
       <r>     1.0540     0.0000    48.0000 </r>
       <r>     1.1772     0.0000    48.0000 </r>
       <r>     1.3005     0.0000    48.0000 </r>
       <r>     1.4238     0.0000    48.0000 </r>
       <r>     1.5471     0.0000    48.0000 </r>
       <r>     1.6704     0.0000    48.0000 </r>
       <r>     1.7936     0.0000    48.0000 </r>
       <r>     1.9169     0.0000    48.0000 </r>
       <r>     2.0402     0.0000    48.0000 </r>
       <r>     2.1635     0.0000    48.0000 </r>
       <r>     2.2868     0.0000    48.0000 </r>
       <r>     2.4100     0.0000    48.0000 </r>
       <r>     2.5333     0.0000    48.0000 </r>
       <r>     2.6566     0.0000    48.0000 </r>
       <r>     2.7799     0.0000    48.0000 </r>
       <r>     2.9032     0.0000    48.0000 </r>
       <r>     3.0265     0.0000    48.0000 </r>
       <r>     3.1497     0.0000    48.0000 </r>
       <r>     3.2730     0.0000    48.0000 </r>
       <r>     3.3963     0.0000    48.0000 </r>
       <r>     3.5196     0.0000    48.0000 </r>
       <r>     3.6429     0.0000    48.0000 </r>
       <r>     3.7661     0.0000    48.0000 </r>
       <r>     3.8894     0.0000    48.0000 </r>
       <r>     4.0127     0.0000    48.0000 </r>
       <r>     4.1360     0.0000    48.0000 </r>
       <r>     4.2593     0.0551    48.0012 </r>
       <r>     4.3826     0.5673    48.0315 </r>
       <r>     4.5058     4.3829    48.2628 </r>
       <r>     4.6291     5.1925    48.8990 </r>
       <r>     4.7524     5.8326    49.5814 </r>
       <r>     4.8757     6.8080    50.3725 </r>
       <r>     4.9990    10.1858    51.3456 </r>
       <r>     5.1222     3.0341    52.1369 </r>
       <r>     5.2455     0.9732    52.3216 </r>
       <r>     5.3688     1.0433    52.4449 </r>
       <r>     5.4921     1.2640    52.5876 </r>
       <r>     5.6154     1.3760    52.7530 </r>
       <r>     5.7386     1.4370    52.9247 </r>
       <r>     5.8619     1.5448    53.1095 </r>
       <r>     5.9852     1.6109    53.3042 </r>
       <r>     6.1085     1.8149    53.5118 </r>
       <r>     6.2318     1.9090    53.7424 </r>
       <r>     6.3551     1.8990    53.9764 </r>
       <r>     6.4783     1.9386    54.2123 </r>
       <r>     6.6016     2.4385    54.4758 </r>
       <r>     6.7249     3.2737    54.8251 </r>
       <r>     6.8482     3.1957    55.2291 </r>
       <r>     6.9715     2.7630    55.6049 </r>
       <r>     7.0947     1.7213    55.8896 </r>
       <r>     7.2180     0.0671    55.9995 </r>
       <r>     7.3413     0.9986    56.0482 </r>
       <r>     7.4646     2.8978    56.3020 </r>
       <r>     7.5879    11.0564    56.9609 </r>
       <r>     7.7111     6.9193    58.1276 </r>
       <r>     7.8344     6.3098    58.9007 </r>
       <r>     7.9577     2.7777    59.4968 </r>
       <r>     8.0810     2.6818    59.7964 </r>
       <r>     8.2043     4.0869    60.2068 </r>
       <r>     8.3276     3.8660    60.7024 </r>
       <r>     8.4508     4.2047    61.1993 </r>
       <r>     8.5741     4.7863    61.7561 </r>
       <r>     8.6974     5.1837    62.3658 </r>
       <r>     8.8207     8.1962    63.1436 </r>
       <r>     8.9440     5.5316    63.8694 </r>
       <r>     9.0672     5.0688    64.5307 </r>
       <r>     9.1905     4.5302    65.1249 </r>
       <r>     9.3138     3.5031    65.6258 </r>
       <r>     9.4371     3.5881    66.0475 </r>
       <r>     9.5604     4.0621    66.5410 </r>
       <r>     9.6836     4.3148    67.0501 </r>
       <r>     9.8069     6.7050    67.7469 </r>
       <r>     9.9302     6.2298    68.5379 </r>
       <r>    10.0535     6.7814    69.3380 </r>
       <r>    10.1768     6.8601    70.2002 </r>
       <r>    10.3001     7.8123    71.0863 </r>
       <r>    10.4233     5.7408    72.0498 </r>
       <r>    10.5466     6.4513    72.7346 </r>
       <r>    10.6699     6.1104    73.5784 </r>
       <r>    10.7932     5.3007    74.2426 </r>
       <r>    10.9165     8.2897    75.0556 </r>
       <r>    11.0397     2.6296    75.7789 </r>
       <r>    11.1630     0.6998    75.9546 </r>
       <r>    11.2863     0.2200    75.9958 </r>
       <r>    11.4096     6.5464    76.2867 </r>
       <r>    11.5329     6.3299    77.3198 </r>
       <r>    11.6561     5.0052    77.9788 </r>
       <r>    11.7794     7.4342    78.7128 </r>
       <r>    11.9027     4.8995    79.4815 </r>
       <r>    12.0260     1.9330    79.8776 </r>
       <r>    12.1493     0.1947    79.9971 </r>
       <r>    12.2726     0.0000    80.0000 </r>
       <r>    12.3958     0.0000    80.0000 </r>
       <r>    12.5191     0.0000    80.0000 </r>
       <r>    12.6424     0.0000    80.0000 </r>
       <r>    12.7657     0.0000    80.0000 </r>
       <r>    12.8890     0.0000    80.0000 </r>
       <r>    13.0122     0.0000    80.0000 </r>
       <r>    13.1355     0.0000    80.0000 </r>
       <r>    13.2588     0.0000    80.0000 </r>
       <r>    13.3821     0.0000    80.0000 </r>
       <r>    13.5054     0.0000    80.0000 </r>
       <r>    13.6286     0.0000    80.0000 </r>
       <r>    13.7519     0.0000    80.0000 </r>
       <r>    13.8752     0.0000    80.0000 </r>
      </set>
     </set>
    </array>
   </total>
  </dos>
 </calculation>
 <structure name="finalpos" >
  <crystal>
   <varray name="basis" >
    <v>       5.51946626       0.00000000       0.00000000 </v>
    <v>       0.00000000       5.51946626       0.00000000 </v>
    <v>       0.00000000       0.00000000       4.64963585 </v>
   </varray>
   <i name="volume">    141.64886774 </i>
   <varray name="rec_basis" >
    <v>       0.18117694       0.00000000       0.00000000 </v>
    <v>       0.00000000       0.18117694       0.00000000 </v>
    <v>       0.00000000       0.00000000       0.21507061 </v>
   </varray>
  </crystal>
  <varray name="positions" >
   <v>       0.00000000       0.50000000       0.32659965 </v>
   <v>       0.50000000       0.00000000       0.67340035 </v>
   <v>       0.00000000       0.50000000       0.60180540 </v>
   <v>       0.50000000       0.00000000       0.39819460 </v>
   <v>       0.14763624       0.64763624       0.17656203 </v>
   <v>       0.64763624       0.85236376       0.82343797 </v>
   <v>       0.85236376       0.35236376       0.17656203 </v>
   <v>       0.35236376       0.14763624       0.82343797 </v>
   <v>       0.26242757       0.76242757       0.28193159 </v>
   <v>       0.76242757       0.73757243       0.71806841 </v>
   <v>       0.73757243       0.23757243       0.28193159 </v>
   <v>       0.23757243       0.26242757       0.71806841 </v>
   <v>       0.14537472       0.64537472       0.95406791 </v>
   <v>       0.64537472       0.85462528       0.04270603 </v>
   <v>       0.85462528       0.35462528       0.95729397 </v>
   <v>       0.35462528       0.14537472       0.04270603 </v>
  </varray>
 </structure>
</modeling>
