<?xml version="1.0" encoding="ISO-8859-1"?>
<modeling>
 <generator>
  <i name="program" type="string">vasp </i>
  <i name="version" type="string">5.3.3  </i>
  <i name="subversion" type="string">18Dez12 (build Nov 29 2013 15:18:52) complex                          parallel </i>
  <i name="platform" type="string">GFORTRAN </i>
  <i name="date" type="string">2014 01 26 </i>
  <i name="time" type="string">18:56:56 </i>
 </generator>
 <incar>
  <i type="int" name="ISTART">     1</i>
  <i type="string" name="PREC">accurate</i>
  <i type="int" name="NELMIN">     4</i>
  <i type="int" name="IBRION">     8</i>
  <i name="EDIFF">      0.00000500</i>
  <i type="int" name="NSW">     1</i>
  <i type="int" name="ISIF">     3</i>
  <i name="ENCUT">    600.00000000</i>
  <i type="int" name="NBANDS">    38</i>
  <i name="POTIM">      0.20000000</i>
  <i type="logical" name="LREAL"> F  </i>
  <i type="logical" name="LPLANE"> T  </i>
  <i type="int" name="ISMEAR">     0</i>
  <i name="SIGMA">      0.05000000</i>
  <i type="logical" name="LSCALU"> T  </i>
  <i type="logical" name="LEPSILON"> T  </i>
  <i type="logical" name="LRPA"> F  </i>
 </incar>
 <kpoints>
  <generation param="Gamma">
   <v type="int" name="divisions">      11       11        6 </v>
   <v name="usershift">      0.00000000       0.00000000       0.00000000 </v>
   <v name="genvec1">      0.09090909       0.00000000       0.00000000 </v>
   <v name="genvec2">      0.00000000       0.09090909       0.00000000 </v>
   <v name="genvec3">      0.00000000       0.00000000       0.16666667 </v>
   <v name="shift">      0.00000000       0.00000000       0.00000000 </v>
  </generation>
  <varray name="kpointlist" >
   <v>       0.00000000       0.00000000       0.00000000 </v>
   <v>       0.09090909       0.00000000       0.00000000 </v>
   <v>       0.18181818       0.00000000       0.00000000 </v>
   <v>       0.27272727       0.00000000       0.00000000 </v>
   <v>       0.36363636       0.00000000       0.00000000 </v>
   <v>       0.45454545       0.00000000       0.00000000 </v>
   <v>       0.09090909       0.09090909       0.00000000 </v>
   <v>       0.18181818       0.09090909       0.00000000 </v>
   <v>       0.27272727       0.09090909       0.00000000 </v>
   <v>       0.36363636       0.09090909       0.00000000 </v>
   <v>       0.45454545       0.09090909       0.00000000 </v>
   <v>       0.18181818       0.18181818       0.00000000 </v>
   <v>       0.27272727       0.18181818       0.00000000 </v>
   <v>       0.36363636       0.18181818       0.00000000 </v>
   <v>       0.27272727       0.27272727       0.00000000 </v>
   <v>       0.36363636       0.27272727       0.00000000 </v>
   <v>       0.00000000       0.00000000       0.16666667 </v>
   <v>       0.09090909       0.00000000       0.16666667 </v>
   <v>       0.18181818       0.00000000       0.16666667 </v>
   <v>       0.27272727       0.00000000       0.16666667 </v>
   <v>       0.36363636       0.00000000       0.16666667 </v>
   <v>       0.45454545       0.00000000       0.16666667 </v>
   <v>       0.09090909       0.09090909       0.16666667 </v>
   <v>       0.18181818       0.09090909       0.16666667 </v>
   <v>       0.27272727       0.09090909       0.16666667 </v>
   <v>       0.36363636       0.09090909       0.16666667 </v>
   <v>       0.45454545       0.09090909       0.16666667 </v>
   <v>       0.18181818       0.18181818       0.16666667 </v>
   <v>       0.27272727       0.18181818       0.16666667 </v>
   <v>       0.36363636       0.18181818       0.16666667 </v>
   <v>       0.27272727       0.27272727       0.16666667 </v>
   <v>       0.36363636       0.27272727       0.16666667 </v>
   <v>       0.00000000       0.00000000       0.33333333 </v>
   <v>       0.09090909       0.00000000       0.33333333 </v>
   <v>       0.18181818       0.00000000       0.33333333 </v>
   <v>       0.27272727       0.00000000       0.33333333 </v>
   <v>       0.36363636       0.00000000       0.33333333 </v>
   <v>       0.45454545       0.00000000       0.33333333 </v>
   <v>       0.09090909       0.09090909       0.33333333 </v>
   <v>       0.18181818       0.09090909       0.33333333 </v>
   <v>       0.27272727       0.09090909       0.33333333 </v>
   <v>       0.36363636       0.09090909       0.33333333 </v>
   <v>       0.45454545       0.09090909       0.33333333 </v>
   <v>       0.18181818       0.18181818       0.33333333 </v>
   <v>       0.27272727       0.18181818       0.33333333 </v>
   <v>       0.36363636       0.18181818       0.33333333 </v>
   <v>       0.27272727       0.27272727       0.33333333 </v>
   <v>       0.36363636       0.27272727       0.33333333 </v>
   <v>       0.00000000       0.00000000       0.50000000 </v>
   <v>       0.09090909       0.00000000       0.50000000 </v>
   <v>       0.18181818       0.00000000       0.50000000 </v>
   <v>       0.27272727       0.00000000       0.50000000 </v>
   <v>       0.36363636       0.00000000       0.50000000 </v>
   <v>       0.45454545       0.00000000       0.50000000 </v>
   <v>       0.09090909       0.09090909       0.50000000 </v>
   <v>       0.18181818       0.09090909       0.50000000 </v>
   <v>       0.27272727       0.09090909       0.50000000 </v>
   <v>       0.36363636       0.09090909       0.50000000 </v>
   <v>       0.45454545       0.09090909       0.50000000 </v>
   <v>       0.18181818       0.18181818       0.50000000 </v>
   <v>       0.27272727       0.18181818       0.50000000 </v>
   <v>       0.36363636       0.18181818       0.50000000 </v>
   <v>       0.27272727       0.27272727       0.50000000 </v>
   <v>       0.36363636       0.27272727       0.50000000 </v>
  </varray>
  <varray name="weights" >
   <v>       0.00137741 </v>
   <v>       0.00826446 </v>
   <v>       0.00826446 </v>
   <v>       0.00826446 </v>
   <v>       0.00826446 </v>
   <v>       0.00826446 </v>
   <v>       0.00826446 </v>
   <v>       0.01652893 </v>
   <v>       0.01652893 </v>
   <v>       0.01652893 </v>
   <v>       0.00826446 </v>
   <v>       0.00826446 </v>
   <v>       0.01652893 </v>
   <v>       0.01652893 </v>
   <v>       0.00826446 </v>
   <v>       0.00826446 </v>
   <v>       0.00275482 </v>
   <v>       0.01652893 </v>
   <v>       0.01652893 </v>
   <v>       0.01652893 </v>
   <v>       0.01652893 </v>
   <v>       0.01652893 </v>
   <v>       0.01652893 </v>
   <v>       0.03305785 </v>
   <v>       0.03305785 </v>
   <v>       0.03305785 </v>
   <v>       0.01652893 </v>
   <v>       0.01652893 </v>
   <v>       0.03305785 </v>
   <v>       0.03305785 </v>
   <v>       0.01652893 </v>
   <v>       0.01652893 </v>
   <v>       0.00275482 </v>
   <v>       0.01652893 </v>
   <v>       0.01652893 </v>
   <v>       0.01652893 </v>
   <v>       0.01652893 </v>
   <v>       0.01652893 </v>
   <v>       0.01652893 </v>
   <v>       0.03305785 </v>
   <v>       0.03305785 </v>
   <v>       0.03305785 </v>
   <v>       0.01652893 </v>
   <v>       0.01652893 </v>
   <v>       0.03305785 </v>
   <v>       0.03305785 </v>
   <v>       0.01652893 </v>
   <v>       0.01652893 </v>
   <v>       0.00137741 </v>
   <v>       0.00826446 </v>
   <v>       0.00826446 </v>
   <v>       0.00826446 </v>
   <v>       0.00826446 </v>
   <v>       0.00826446 </v>
   <v>       0.00826446 </v>
   <v>       0.01652893 </v>
   <v>       0.01652893 </v>
   <v>       0.01652893 </v>
   <v>       0.00826446 </v>
   <v>       0.00826446 </v>
   <v>       0.01652893 </v>
   <v>       0.01652893 </v>
   <v>       0.00826446 </v>
   <v>       0.00826446 </v>
  </varray>
 </kpoints>
 <parameters>
  <separator name="general" >
   <i type="string" name="SYSTEM">unknown system</i>
   <i type="logical" name="LCOMPAT"> F  </i>
  </separator>
  <separator name="electronic" >
   <i type="string" name="PREC">accura</i>
   <i name="ENMAX">    600.00000000</i>
   <i name="ENAUG">    605.39200000</i>
   <i name="EDIFF">      0.00000500</i>
   <i type="int" name="IALGO">    38</i>
   <i type="int" name="IWAVPR">    11</i>
   <i type="int" name="NBANDS">    40</i>
   <i name="NELECT">     36.00000000</i>
   <i type="int" name="TURBO">     0</i>
   <i type="int" name="IRESTART">     0</i>
   <i type="int" name="NREBOOT">     0</i>
   <i type="int" name="NMIN">     0</i>
   <i name="EREF">      0.00000000</i>
   <separator name="electronic smearing" >
    <i type="int" name="ISMEAR">     0</i>
    <i name="SIGMA">      0.05000000</i>
    <i name="KSPACING">      0.50000000</i>
    <i type="logical" name="KGAMMA"> T  </i>
   </separator>
   <separator name="electronic projectors" >
    <i type="logical" name="LREAL"> F  </i>
    <v name="ROPT">      0.00000000      0.00000000</v>
    <i type="int" name="LMAXPAW">  -100</i>
    <i type="int" name="LMAXMIX">     2</i>
    <i type="logical" name="NLSPLINE"> F  </i>
   </separator>
   <separator name="electronic startup" >
    <i type="int" name="ISTART">     1</i>
    <i type="int" name="ICHARG">     0</i>
    <i type="int" name="INIWAV">     1</i>
   </separator>
   <separator name="electronic spin" >
    <i type="int" name="ISPIN">     1</i>
    <i type="logical" name="LNONCOLLINEAR"> F  </i>
    <v name="MAGMOM">      1.00000000      1.00000000      1.00000000      1.00000000</v>
    <i name="NUPDOWN">     -1.00000000</i>
    <i type="logical" name="LSORBIT"> F  </i>
    <v name="SAXIS">      0.00000000      0.00000000      1.00000000</v>
    <i type="logical" name="LSPIRAL"> F  </i>
    <v name="QSPIRAL">      0.00000000      0.00000000      0.00000000</v>
    <i type="logical" name="LZEROZ"> F  </i>
   </separator>
   <separator name="electronic exchange-correlation" >
    <i type="logical" name="LASPH"> F  </i>
    <i type="logical" name="LMETAGGA"> F  </i>
   </separator>
   <separator name="electronic convergence" >
    <i type="int" name="NELM">    60</i>
    <i type="int" name="NELMDL">     0</i>
    <i type="int" name="NELMIN">     4</i>
    <i name="ENINI">    600.00000000</i>
    <separator name="electronic convergence detail" >
     <i type="logical" name="LDIAG"> T  </i>
     <i type="logical" name="LSUBROT"> T  </i>
     <i name="WEIMIN">      0.00100000</i>
     <i name="EBREAK">      0.00000003</i>
     <i name="DEPER">      0.30000000</i>
     <i type="int" name="NRMM">     4</i>
     <i name="TIME">      0.40000000</i>
    </separator>
   </separator>
   <separator name="electronic mixer" >
    <i name="AMIX">      0.40000000</i>
    <i name="BMIX">      1.00000000</i>
    <i name="AMIN">      0.10000000</i>
    <i name="AMIX_MAG">      1.60000000</i>
    <i name="BMIX_MAG">      1.00000000</i>
    <separator name="electronic mixer details" >
     <i type="int" name="IMIX">     4</i>
     <i type="int" name="MAXMIX">   -45</i>
     <i name="WC">    100.00000000</i>
     <i type="int" name="INIMIX">     1</i>
     <i type="int" name="MIXPRE">     1</i>
     <i type="int" name="MREMOVE">     5</i>
    </separator>
   </separator>
   <separator name="electronic dipolcorrection" >
    <i type="logical" name="LDIPOL"> F  </i>
    <i type="logical" name="LMONO"> F  </i>
    <i type="int" name="IDIPOL">     0</i>
    <i name="EPSILON">      1.00000000</i>
    <v name="DIPOL">   -100.00000000   -100.00000000   -100.00000000</v>
    <i name="EFIELD">      0.00000000</i>
   </separator>
  </separator>
  <separator name="grids" >
   <i type="int" name="NGX">    28</i>
   <i type="int" name="NGY">    28</i>
   <i type="int" name="NGZ">    42</i>
   <i type="int" name="NGXF">    56</i>
   <i type="int" name="NGYF">    56</i>
   <i type="int" name="NGZF">    84</i>
   <i type="logical" name="ADDGRID"> F  </i>
  </separator>
  <separator name="ionic" >
   <i type="int" name="NSW">     1</i>
   <i type="int" name="IBRION">     8</i>
   <i type="int" name="ISIF">     3</i>
   <i name="PSTRESS">      0.00000000</i>
   <i name="EDIFFG">      0.00005000</i>
   <i type="int" name="NFREE">     0</i>
   <i name="POTIM">      0.20000000</i>
   <i name="SMASS">     -3.00000000</i>
   <i name="SCALEE">      1.00000000</i>
  </separator>
  <separator name="ionic md" >
   <i name="TEBEG">      0.00010000</i>
   <i name="TEEND">      0.00010000</i>
   <i type="int" name="NBLOCK">     1</i>
   <i type="int" name="KBLOCK">     1</i>
   <i type="int" name="NPACO">   256</i>
   <i name="APACO">     16.00000000</i>
  </separator>
  <separator name="symmetry" >
   <i type="int" name="ISYM">     2</i>
   <i name="SYMPREC">      0.00001000</i>
  </separator>
  <separator name="dos" >
   <i type="logical" name="LORBIT"> F  </i>
   <v name="RWIGS">     -1.00000000     -1.00000000</v>
   <i type="int" name="NEDOS">   301</i>
   <i name="EMIN">     10.00000000</i>
   <i name="EMAX">    -10.00000000</i>
   <i name="EFERMI">      0.00000000</i>
  </separator>
  <separator name="writing" >
   <i type="int" name="NWRITE">     2</i>
   <i type="logical" name="LWAVE"> T  </i>
   <i type="logical" name="LCHARG"> T  </i>
   <i type="logical" name="LPARD"> F  </i>
   <i type="logical" name="LVTOT"> F  </i>
   <i type="logical" name="LVHAR"> F  </i>
   <i type="logical" name="LELF"> F  </i>
   <i type="logical" name="LOPTICS"> F  </i>
   <v name="STM">      0.00000000      0.00000000      0.00000000      0.00000000      0.00000000      0.00000000      0.00000000</v>
  </separator>
  <separator name="performance" >
   <i type="int" name="NPAR">     4</i>
   <i type="int" name="NSIM">     4</i>
   <i type="int" name="NBLK">    -1</i>
   <i type="logical" name="LPLANE"> T  </i>
   <i type="logical" name="LSCALAPACK"> F  </i>
   <i type="logical" name="LSCAAWARE"> F  </i>
   <i type="logical" name="LSCALU"> T  </i>
   <i type="logical" name="LASYNC"> F  </i>
   <i type="logical" name="LORBITALREAL"> F  </i>
  </separator>
  <separator name="miscellaneous" >
   <i type="int" name="IDIOT">     3</i>
   <i type="logical" name="LMUSIC"> F  </i>
   <v name="POMASS">     65.39000000     16.00000000</v>
   <v name="DARWINR">      0.00000000      0.00000000</v>
   <v name="DARWINV">      1.00000000      1.00000000</v>
   <i type="logical" name="LCORR"> T  </i>
  </separator>
  <i type="logical" name="GGA_COMPAT"> T  </i>
  <i type="logical" name="LBERRY"> F  </i>
  <i type="int" name="ICORELEVEL">     0</i>
  <i type="logical" name="LDAU"> F  </i>
  <i type="int" name="I_CONSTRAINED_M">     0</i>
  <separator name="electronic exchange-correlation" >
   <i type="string" name="GGA">--</i>
   <i type="int" name="VOSKOWN">     0</i>
   <i type="logical" name="LHFCALC"> F  </i>
   <i type="string" name="PRECFOCK"></i>
   <i type="logical" name="LSYMGRAD"> F  </i>
   <i type="logical" name="LHFONE"> F  </i>
   <i type="logical" name="LRHFCALC"> F  </i>
   <i type="logical" name="LTHOMAS"> F  </i>
   <i type="logical" name="LMODELHF"> F  </i>
   <i name="ENCUT4O">     -1.00000000</i>
   <i type="int" name="EXXOEP">     0</i>
   <i type="int" name="FOURORBIT">     0</i>
   <i name="AEXX">      0.00000000</i>
   <i name="HFALPHA">      0.00000000</i>
   <i name="MCALPHA">      0.00000000</i>
   <i name="ALDAX">      1.00000000</i>
   <i name="AGGAX">      1.00000000</i>
   <i name="ALDAC">      1.00000000</i>
   <i name="AGGAC">      1.00000000</i>
   <i type="int" name="NKREDX">     1</i>
   <i type="int" name="NKREDY">     1</i>
   <i type="int" name="NKREDZ">     1</i>
   <i type="logical" name="SHIFTRED"> F  </i>
   <i type="logical" name="ODDONLY"> F  </i>
   <i type="logical" name="EVENONLY"> F  </i>
   <i type="int" name="LMAXFOCK">     0</i>
   <i type="int" name="NMAXFOCKAE">     0</i>
   <i type="logical" name="LFOCKAEDFT"> F  </i>
   <i name="HFSCREEN">      0.00000000</i>
   <i name="HFSCREENC">      0.00000000</i>
   <i type="int" name="NBANDSGWLOW">     0</i>
  </separator>
  <separator name="vdW DFT" >
   <i type="logical" name="LUSE_VDW"> F  </i>
   <i name="Zab_VDW">     -0.84910000</i>
   <i name="PARAM1">      0.12340000</i>
   <i name="PARAM2">      1.00000000</i>
   <i name="PARAM3">      0.00000000</i>
  </separator>
  <separator name="model GW" >
   <i type="int" name="MODEL_GW">     0</i>
   <i name="MODEL_EPS0">      7.45381478</i>
   <i name="MODEL_ALPHA">      1.00000000</i>
  </separator>
  <separator name="linear response parameters" >
   <i type="logical" name="LEPSILON"> T  </i>
   <i type="logical" name="LRPA"> F  </i>
   <i type="logical" name="LNABLA"> F  </i>
   <i type="logical" name="LVEL"> F  </i>
   <i type="int" name="KINTER">     0</i>
   <i name="CSHIFT">      0.10000000</i>
   <i name="OMEGAMAX">     -1.00000000</i>
   <i name="DEG_THRESHOLD">      0.00200000</i>
  </separator>
  <separator name="orbital magnetization" >
   <i type="logical" name="NUCIND"> F  </i>
   <v name="MAGPOS">      0.00000000      0.00000000      0.00000000</v>
   <i type="logical" name="LNICSALL"> T  </i>
   <i type="logical" name="ORBITALMAG"> F  </i>
   <i type="logical" name="LMAGBLOCH"> F  </i>
   <i type="logical" name="LCHIMAG"> F  </i>
   <i type="logical" name="LGAUGE"> T  </i>
   <i type="int" name="MAGATOM">     0</i>
   <v name="MAGDIPOL">      0.00000000      0.00000000      0.00000000</v>
   <v name="AVECCONST">      0.00000000      0.00000000      0.00000000</v>
  </separator>
  <separator name="response functions" >
   <i type="logical" name="LADDER"> T  </i>
   <i type="logical" name="LFXC"> F  </i>
   <i type="logical" name="LHARTREE"> T  </i>
   <i type="int" name="IBSE">     0</i>
   <i type="logical" name="LTCTE"> F  </i>
   <i type="logical" name="LTETE"> F  </i>
   <i type="logical" name="LTRIPLET"> F  </i>
   <i type="logical" name="LFXCEPS"> F  </i>
   <i type="logical" name="L2ORDER"> F  </i>
   <i type="logical" name="LUSEW"> F  </i>
   <i name="ENCUTGW">     -2.00000000</i>
   <i name="ENCUTGWSOFT">     -2.00000000</i>
   <i name="ENCUTLF">     -1.00000000</i>
   <i type="int" name="LMAXMP2">    -1</i>
   <i name="SCISSOR">      0.00000000</i>
   <i type="int" name="NOMEGA">     0</i>
   <i type="int" name="NOMEGAR">     0</i>
   <i type="int" name="NBANDSGW">    -1</i>
   <i type="int" name="NBANDSO">    -1</i>
   <i type="int" name="NBANDSV">    -1</i>
   <i type="int" name="NELM">     1</i>
   <i type="int" name="DIM">     3</i>
   <i type="int" name="ANTIRES">     0</i>
   <i name="OMEGAMAX">    -30.00000000</i>
   <i name="OMEGATL">   -200.00000000</i>
   <i type="int" name="OMEGAGRID">     0</i>
   <i name="CSHIFT">     -0.10000000</i>
   <i type="logical" name="SELFENERGY"> F  </i>
   <i type="logical" name="LSPECTRAL"> F  </i>
   <i type="logical" name="ODDONLYGW"> F  </i>
   <i type="logical" name="EVENONLYGW"> F  </i>
   <i type="int" name="NKREDLFX">     1</i>
   <i type="int" name="NKREDLFY">     1</i>
   <i type="int" name="NKREDLFZ">     1</i>
   <i type="int" name="MAXMEM">  1800</i>
   <i type="int" name="TELESCOPE">     0</i>
  </separator>
 </parameters>
 <atominfo>
  <atoms>       4 </atoms>
  <types>       2 </types>
  <array name="atoms" >
   <dimension dim="1">ion</dimension>
   <field type="string">element</field>
   <field type="int">atomtype</field>
   <set>
    <rc><c>Zn</c><c>   1</c></rc>
    <rc><c>Zn</c><c>   1</c></rc>
    <rc><c>O </c><c>   2</c></rc>
    <rc><c>O </c><c>   2</c></rc>
   </set>
  </array>
  <array name="atomtypes" >
   <dimension dim="1">type</dimension>
   <field type="int">atomspertype</field>
   <field type="string">element</field>
   <field>mass</field>
   <field>valence</field>
   <field type="string">pseudopotential</field>
   <set>
    <rc><c>   2</c><c>Zn</c><c>     65.39000000</c><c>     12.00000000</c><c>  PAW_PBE Zn 06Sep2000                  </c></rc>
    <rc><c>   2</c><c>O </c><c>     16.00000000</c><c>      6.00000000</c><c>  PAW_PBE O 08Apr2002                   </c></rc>
   </set>
  </array>
 </atominfo>
 <structure name="initialpos" >
  <crystal>
   <varray name="basis" >
    <v>       2.85360405      -1.64752907       0.00000000 </v>
    <v>       0.00000000       3.29505813       0.00000000 </v>
    <v>       0.00000000       0.00000000       5.28482419 </v>
   </varray>
   <i name="volume">     49.69209855 </i>
   <varray name="rec_basis" >
    <v>       0.35043404       0.00000000       0.00000000 </v>
    <v>       0.17521702       0.30348478      -0.00000000 </v>
    <v>      -0.00000000       0.00000000       0.18922105 </v>
   </varray>
  </crystal>
  <varray name="positions" >
   <v>       0.33333333       0.66666667       0.00090035 </v>
   <v>       0.66666667       0.33333333       0.50090035 </v>
   <v>       0.33333333       0.66666667       0.38159965 </v>
   <v>       0.66666667       0.33333333       0.88159965 </v>
  </varray>
 </structure>
 <calculation>
  <scstep>
   <time name="dav">    4.76    4.88</time>
   <time name="total">    5.15    5.27</time>
   <energy>
    <i name="alphaZ">    224.66538296 </i>
    <i name="ewald">  -2920.47026172 </i>
    <i name="hartreedc">  -1334.79379826 </i>
    <i name="XCdc">    171.36935934 </i>
    <i name="pawpsdc">   4064.81368480 </i>
    <i name="pawaedc">  -4425.98218855 </i>
    <i name="eentropy">     -0.00000000 </i>
    <i name="bandstr">   -159.85313502 </i>
    <i name="atom">   4362.38905976 </i>
    <i name="e_fr_energy">    -17.86189670 </i>
    <i name="e_wo_entrp">    -17.86189670 </i>
    <i name="e_0_energy">    -17.86189670 </i>
   </energy>
  </scstep>
  <scstep>
   <time name="dav">    4.53    4.59</time>
   <time name="total">    4.92    4.98</time>
   <energy>
    <i name="e_fr_energy">    -17.86189674 </i>
    <i name="e_wo_entrp">    -17.86189674 </i>
    <i name="e_0_energy">    -17.86189674 </i>
   </energy>
  </scstep>
  <scstep>
   <time name="dav">    4.23    4.28</time>
   <time name="total">    4.62    4.68</time>
   <energy>
    <i name="e_fr_energy">    -17.86189672 </i>
    <i name="e_wo_entrp">    -17.86189672 </i>
    <i name="e_0_energy">    -17.86189672 </i>
   </energy>
  </scstep>
  <scstep>
   <time name="dav">    4.30    4.34</time>
   <time name="total">    4.36    4.41</time>
   <energy>
    <i name="alphaZ">    224.66538296 </i>
    <i name="ewald">  -2920.47026172 </i>
    <i name="hartreedc">  -1334.79641779 </i>
    <i name="XCdc">    171.36944951 </i>
    <i name="pawpsdc">   4064.82709764 </i>
    <i name="pawaedc">  -4425.99703192 </i>
    <i name="eentropy">     -0.00000000 </i>
    <i name="bandstr">   -159.84917515 </i>
    <i name="atom">   4362.38905976 </i>
    <i name="e_fr_energy">    -17.86189670 </i>
    <i name="e_wo_entrp">    -17.86189670 </i>
    <i name="e_0_energy">    -17.86189670 </i>
   </energy>
  </scstep>
  <structure>
   <crystal>
    <varray name="basis" >
     <v>       2.85360405      -1.64752907       0.00000000 </v>
     <v>       0.00000000       3.29505813       0.00000000 </v>
     <v>       0.00000000       0.00000000       5.28482419 </v>
    </varray>
    <i name="volume">     49.69209855 </i>
    <varray name="rec_basis" >
     <v>       0.35043404       0.00000000       0.00000000 </v>
     <v>       0.17521702       0.30348478      -0.00000000 </v>
     <v>      -0.00000000       0.00000000       0.18922105 </v>
    </varray>
   </crystal>
   <varray name="positions" >
    <v>       0.33333333       0.66666667       0.00090035 </v>
    <v>       0.66666667       0.33333333       0.50090035 </v>
    <v>       0.33333333       0.66666667       0.38159965 </v>
    <v>       0.66666667       0.33333333       0.88159965 </v>
   </varray>
  </structure>
  <varray name="forces" >
   <v>       0.00000000      -0.00000000       0.00239894 </v>
   <v>      -0.00000000       0.00000000       0.00239894 </v>
   <v>      -0.00000000      -0.00000000      -0.00239894 </v>
   <v>       0.00000000      -0.00000000      -0.00239894 </v>
  </varray>
  <varray name="stress" >
   <v>      -4.71888405       0.00000000       0.00000000 </v>
   <v>       0.00000000      -4.71888405      -0.00000000 </v>
   <v>       0.00000000       0.00000000       1.74861666 </v>
  </varray>
  <energy>
   <i name="e_fr_energy">    -17.86189670 </i>
   <i name="e_wo_entrp">    -17.86189670 </i>
   <i name="e_0_energy">     -0.00000000 </i>
  </energy>
  <scstep>
   <time name="total">    6.90    6.97</time>
   <energy>
    <i name="e_fr_energy">    -82.78680158 </i>
    <i name="e_wo_entrp">    -82.78680158 </i>
    <i name="e_0_energy">    -82.78680158 </i>
   </energy>
  </scstep>
  <scstep>
   <time name="total">    7.49    7.56</time>
   <energy>
    <i name="e_fr_energy">    -88.73293930 </i>
    <i name="e_wo_entrp">    -88.73293930 </i>
    <i name="e_0_energy">    -88.73293930 </i>
   </energy>
  </scstep>
  <scstep>
   <time name="total">    8.11    8.17</time>
   <energy>
    <i name="e_fr_energy">    -88.98885921 </i>
    <i name="e_wo_entrp">    -88.98885921 </i>
    <i name="e_0_energy">    -88.98885921 </i>
   </energy>
  </scstep>
  <scstep>
   <time name="total">    6.71    6.76</time>
   <energy>
    <i name="e_fr_energy">    -88.98924284 </i>
    <i name="e_wo_entrp">    -88.98924284 </i>
    <i name="e_0_energy">    -88.98924284 </i>
   </energy>
  </scstep>
  <scstep>
   <time name="total">    6.89    6.95</time>
   <energy>
    <i name="e_fr_energy">    -88.98929486 </i>
    <i name="e_wo_entrp">    -88.98929486 </i>
    <i name="e_0_energy">    -88.98929486 </i>
   </energy>
  </scstep>
  <scstep>
   <time name="total">    6.75    6.80</time>
   <energy>
    <i name="e_fr_energy">    -88.98929781 </i>
    <i name="e_wo_entrp">    -88.98929781 </i>
    <i name="e_0_energy">    -88.98929781 </i>
   </energy>
  </scstep>
  <scstep>
   <time name="total">    6.85    6.90</time>
   <energy>
    <i name="e_fr_energy">    -99.27325904 </i>
    <i name="e_wo_entrp">    -99.27325904 </i>
    <i name="e_0_energy">    -99.27325904 </i>
   </energy>
  </scstep>
  <scstep>
   <time name="total">    7.60    7.66</time>
   <energy>
    <i name="e_fr_energy">   -103.74656454 </i>
    <i name="e_wo_entrp">   -103.74656454 </i>
    <i name="e_0_energy">   -103.74656454 </i>
   </energy>
  </scstep>
  <scstep>
   <time name="total">    8.22    8.28</time>
   <energy>
    <i name="e_fr_energy">   -103.94282492 </i>
    <i name="e_wo_entrp">   -103.94282492 </i>
    <i name="e_0_energy">   -103.94282492 </i>
   </energy>
  </scstep>
  <scstep>
   <time name="total">    6.88    6.93</time>
   <energy>
    <i name="e_fr_energy">   -103.94309656 </i>
    <i name="e_wo_entrp">   -103.94309656 </i>
    <i name="e_0_energy">   -103.94309656 </i>
   </energy>
  </scstep>
  <scstep>
   <time name="total">    6.87    6.92</time>
   <energy>
    <i name="e_fr_energy">   -103.94330896 </i>
    <i name="e_wo_entrp">   -103.94330896 </i>
    <i name="e_0_energy">   -103.94330896 </i>
   </energy>
  </scstep>
  <scstep>
   <time name="total">    6.71    6.76</time>
   <energy>
    <i name="e_fr_energy">   -103.94332566 </i>
    <i name="e_wo_entrp">   -103.94332566 </i>
    <i name="e_0_energy">   -103.94332566 </i>
   </energy>
  </scstep>
  <scstep>
   <time name="total">    6.19    6.24</time>
   <energy>
    <i name="e_fr_energy">   -103.94332783 </i>
    <i name="e_wo_entrp">   -103.94332783 </i>
    <i name="e_0_energy">   -103.94332783 </i>
   </energy>
  </scstep>
  <scstep>
   <time name="total">    6.84    6.89</time>
   <energy>
    <i name="e_fr_energy">    -92.68515928 </i>
    <i name="e_wo_entrp">    -92.68515928 </i>
    <i name="e_0_energy">    -92.68515928 </i>
   </energy>
  </scstep>
  <scstep>
   <time name="total">    7.51    7.58</time>
   <energy>
    <i name="e_fr_energy">    -96.39049930 </i>
    <i name="e_wo_entrp">    -96.39049930 </i>
    <i name="e_0_energy">    -96.39049930 </i>
   </energy>
  </scstep>
  <scstep>
   <time name="total">    8.17    8.23</time>
   <energy>
    <i name="e_fr_energy">    -96.62480462 </i>
    <i name="e_wo_entrp">    -96.62480462 </i>
    <i name="e_0_energy">    -96.62480462 </i>
   </energy>
  </scstep>
  <scstep>
   <time name="total">    6.84    6.89</time>
   <energy>
    <i name="e_fr_energy">    -96.62535669 </i>
    <i name="e_wo_entrp">    -96.62535669 </i>
    <i name="e_0_energy">    -96.62535669 </i>
   </energy>
  </scstep>
  <scstep>
   <time name="total">    6.87    6.92</time>
   <energy>
    <i name="e_fr_energy">    -96.62534039 </i>
    <i name="e_wo_entrp">    -96.62534039 </i>
    <i name="e_0_energy">    -96.62534039 </i>
   </energy>
  </scstep>
  <scstep>
   <time name="total">    6.69    6.74</time>
   <energy>
    <i name="e_fr_energy">    -96.62533720 </i>
    <i name="e_wo_entrp">    -96.62533720 </i>
    <i name="e_0_energy">    -96.62533720 </i>
   </energy>
  </scstep>
  <scstep>
   <time name="total">    6.14    6.18</time>
   <energy>
    <i name="e_fr_energy">     -0.38806017 </i>
    <i name="e_wo_entrp">     -0.38806017 </i>
    <i name="e_0_energy">     -0.38806017 </i>
   </energy>
  </scstep>
  <scstep>
   <time name="total">    8.07    8.13</time>
   <energy>
    <i name="e_fr_energy">     -0.48362322 </i>
    <i name="e_wo_entrp">     -0.48362322 </i>
    <i name="e_0_energy">     -0.48362322 </i>
   </energy>
  </scstep>
  <scstep>
   <time name="total">    8.16    8.18</time>
   <energy>
    <i name="e_fr_energy">     -0.48400499 </i>
    <i name="e_wo_entrp">     -0.48400499 </i>
    <i name="e_0_energy">     -0.48400499 </i>
   </energy>
  </scstep>
  <scstep>
   <time name="total">    8.10    8.12</time>
   <energy>
    <i name="e_fr_energy">     -0.48400508 </i>
    <i name="e_wo_entrp">     -0.48400508 </i>
    <i name="e_0_energy">     -0.48400508 </i>
   </energy>
  </scstep>
  <scstep>
   <time name="total">    6.16    6.17</time>
   <energy>
    <i name="e_fr_energy">     -0.71031951 </i>
    <i name="e_wo_entrp">     -0.71031951 </i>
    <i name="e_0_energy">     -0.71031951 </i>
   </energy>
  </scstep>
  <scstep>
   <time name="total">    8.07    8.10</time>
   <energy>
    <i name="e_fr_energy">     -0.84799250 </i>
    <i name="e_wo_entrp">     -0.84799250 </i>
    <i name="e_0_energy">     -0.84799250 </i>
   </energy>
  </scstep>
  <scstep>
   <time name="total">    8.18    8.20</time>
   <energy>
    <i name="e_fr_energy">     -0.84847394 </i>
    <i name="e_wo_entrp">     -0.84847394 </i>
    <i name="e_0_energy">     -0.84847394 </i>
   </energy>
  </scstep>
  <scstep>
   <time name="total">    7.87    7.89</time>
   <energy>
    <i name="e_fr_energy">     -0.84847462 </i>
    <i name="e_wo_entrp">     -0.84847462 </i>
    <i name="e_0_energy">     -0.84847462 </i>
   </energy>
  </scstep>
  <scstep>
   <time name="total">    6.27    6.29</time>
   <energy>
    <i name="e_fr_energy">     -0.56205552 </i>
    <i name="e_wo_entrp">     -0.56205552 </i>
    <i name="e_0_energy">     -0.56205552 </i>
   </energy>
  </scstep>
  <scstep>
   <time name="total">    8.12    8.14</time>
   <energy>
    <i name="e_fr_energy">     -0.65461162 </i>
    <i name="e_wo_entrp">     -0.65461162 </i>
    <i name="e_0_energy">     -0.65461162 </i>
   </energy>
  </scstep>
  <scstep>
   <time name="total">    8.14    8.16</time>
   <energy>
    <i name="e_fr_energy">     -0.65489217 </i>
    <i name="e_wo_entrp">     -0.65489217 </i>
    <i name="e_0_energy">     -0.65489217 </i>
   </energy>
  </scstep>
  <scstep>
   <time name="total">    7.95    7.97</time>
   <energy>
    <i name="e_fr_energy">     -0.65489311 </i>
    <i name="e_wo_entrp">     -0.65489311 </i>
    <i name="e_0_energy">     -0.65489311 </i>
   </energy>
  </scstep>
  <varray name="epsilon_rpa" >
   <v>       5.85220683       0.00000000       0.00000000 </v>
   <v>      -0.00000000       5.85220683       0.00000000 </v>
   <v>       0.00000000      -0.00000000       5.76956920 </v>
  </varray>
  <kpoints>
   <generation param="Gamma">
    <v type="int" name="divisions">      11       11        6 </v>
    <v name="usershift">      0.00000000       0.00000000       0.00000000 </v>
    <v name="genvec1">      0.09090909       0.00000000       0.00000000 </v>
    <v name="genvec2">      0.00000000       0.09090909       0.00000000 </v>
    <v name="genvec3">      0.00000000       0.00000000       0.16666667 </v>
    <v name="shift">      0.00000000       0.00000000       0.00000000 </v>
   </generation>
   <varray name="kpointlist" >
    <v>       0.00000000       0.00000000       0.00000000 </v>
    <v>       0.09090909       0.00000000       0.00000000 </v>
    <v>       0.18181818       0.00000000       0.00000000 </v>
    <v>       0.27272727       0.00000000       0.00000000 </v>
    <v>       0.36363636       0.00000000       0.00000000 </v>
    <v>       0.45454545       0.00000000       0.00000000 </v>
    <v>       0.00000000       0.09090909       0.00000000 </v>
    <v>       0.09090909       0.09090909       0.00000000 </v>
    <v>       0.18181818       0.09090909       0.00000000 </v>
    <v>       0.27272727       0.09090909       0.00000000 </v>
    <v>       0.36363636       0.09090909       0.00000000 </v>
    <v>       0.45454545       0.09090909       0.00000000 </v>
    <v>       0.00000000       0.18181818       0.00000000 </v>
    <v>       0.09090909       0.18181818       0.00000000 </v>
    <v>       0.18181818       0.18181818       0.00000000 </v>
    <v>       0.27272727       0.18181818       0.00000000 </v>
    <v>       0.36363636       0.18181818       0.00000000 </v>
    <v>      -0.09090909       0.18181818       0.00000000 </v>
    <v>       0.00000000       0.27272727       0.00000000 </v>
    <v>       0.09090909       0.27272727       0.00000000 </v>
    <v>       0.18181818       0.27272727       0.00000000 </v>
    <v>       0.27272727       0.27272727       0.00000000 </v>
    <v>       0.36363636       0.27272727       0.00000000 </v>
    <v>      -0.18181818       0.27272727       0.00000000 </v>
    <v>       0.00000000       0.36363636       0.00000000 </v>
    <v>       0.09090909       0.36363636       0.00000000 </v>
    <v>       0.18181818       0.36363636       0.00000000 </v>
    <v>       0.27272727       0.36363636       0.00000000 </v>
    <v>      -0.27272727       0.36363636       0.00000000 </v>
    <v>      -0.18181818       0.36363636       0.00000000 </v>
    <v>       0.00000000       0.45454545       0.00000000 </v>
    <v>       0.09090909       0.45454545       0.00000000 </v>
    <v>       0.18181818       0.45454545       0.00000000 </v>
    <v>       0.27272727       0.45454545       0.00000000 </v>
    <v>      -0.36363636       0.45454545       0.00000000 </v>
    <v>      -0.27272727       0.45454545       0.00000000 </v>
    <v>       0.00000000       0.00000000       0.16666667 </v>
    <v>       0.09090909       0.00000000       0.16666667 </v>
    <v>       0.18181818       0.00000000       0.16666667 </v>
    <v>       0.27272727       0.00000000       0.16666667 </v>
    <v>       0.36363636       0.00000000       0.16666667 </v>
    <v>       0.45454545       0.00000000       0.16666667 </v>
    <v>      -0.45454545       0.00000000       0.16666667 </v>
    <v>      -0.36363636       0.00000000       0.16666667 </v>
    <v>      -0.27272727       0.00000000       0.16666667 </v>
    <v>      -0.18181818       0.00000000       0.16666667 </v>
    <v>      -0.09090909       0.00000000       0.16666667 </v>
    <v>       0.00000000       0.09090909       0.16666667 </v>
    <v>       0.09090909       0.09090909       0.16666667 </v>
    <v>       0.18181818       0.09090909       0.16666667 </v>
    <v>       0.27272727       0.09090909       0.16666667 </v>
    <v>       0.36363636       0.09090909       0.16666667 </v>
    <v>       0.45454545       0.09090909       0.16666667 </v>
    <v>      -0.45454545       0.09090909       0.16666667 </v>
    <v>      -0.36363636       0.09090909       0.16666667 </v>
    <v>      -0.27272727       0.09090909       0.16666667 </v>
    <v>      -0.18181818       0.09090909       0.16666667 </v>
    <v>      -0.09090909       0.09090909       0.16666667 </v>
    <v>       0.00000000       0.18181818       0.16666667 </v>
    <v>       0.09090909       0.18181818       0.16666667 </v>
    <v>       0.18181818       0.18181818       0.16666667 </v>
    <v>       0.27272727       0.18181818       0.16666667 </v>
    <v>       0.36363636       0.18181818       0.16666667 </v>
    <v>       0.45454545       0.18181818       0.16666667 </v>
    <v>      -0.45454545       0.18181818       0.16666667 </v>
    <v>      -0.36363636       0.18181818       0.16666667 </v>
    <v>      -0.27272727       0.18181818       0.16666667 </v>
    <v>      -0.18181818       0.18181818       0.16666667 </v>
    <v>      -0.09090909       0.18181818       0.16666667 </v>
    <v>       0.00000000       0.27272727       0.16666667 </v>
    <v>       0.09090909       0.27272727       0.16666667 </v>
    <v>       0.18181818       0.27272727       0.16666667 </v>
    <v>       0.27272727       0.27272727       0.16666667 </v>
    <v>       0.36363636       0.27272727       0.16666667 </v>
    <v>       0.45454545       0.27272727       0.16666667 </v>
    <v>      -0.45454545       0.27272727       0.16666667 </v>
    <v>      -0.36363636       0.27272727       0.16666667 </v>
    <v>      -0.27272727       0.27272727       0.16666667 </v>
    <v>      -0.18181818       0.27272727       0.16666667 </v>
    <v>      -0.09090909       0.27272727       0.16666667 </v>
    <v>       0.00000000       0.36363636       0.16666667 </v>
    <v>       0.09090909       0.36363636       0.16666667 </v>
    <v>       0.18181818       0.36363636       0.16666667 </v>
    <v>       0.27272727       0.36363636       0.16666667 </v>
    <v>       0.36363636       0.36363636       0.16666667 </v>
    <v>       0.45454545       0.36363636       0.16666667 </v>
    <v>      -0.45454545       0.36363636       0.16666667 </v>
    <v>      -0.36363636       0.36363636       0.16666667 </v>
    <v>      -0.27272727       0.36363636       0.16666667 </v>
    <v>      -0.18181818       0.36363636       0.16666667 </v>
    <v>      -0.09090909       0.36363636       0.16666667 </v>
    <v>       0.00000000       0.45454545       0.16666667 </v>
    <v>       0.09090909       0.45454545       0.16666667 </v>
    <v>       0.18181818       0.45454545       0.16666667 </v>
    <v>       0.27272727       0.45454545       0.16666667 </v>
    <v>       0.36363636       0.45454545       0.16666667 </v>
    <v>       0.45454545       0.45454545       0.16666667 </v>
    <v>      -0.45454545       0.45454545       0.16666667 </v>
    <v>      -0.36363636       0.45454545       0.16666667 </v>
    <v>      -0.27272727       0.45454545       0.16666667 </v>
    <v>      -0.18181818       0.45454545       0.16666667 </v>
    <v>      -0.09090909       0.45454545       0.16666667 </v>
    <v>       0.00000000       0.00000000       0.33333333 </v>
    <v>       0.09090909       0.00000000       0.33333333 </v>
    <v>       0.18181818       0.00000000       0.33333333 </v>
    <v>       0.27272727       0.00000000       0.33333333 </v>
    <v>       0.36363636       0.00000000       0.33333333 </v>
    <v>       0.45454545       0.00000000       0.33333333 </v>
    <v>      -0.45454545       0.00000000       0.33333333 </v>
    <v>      -0.36363636       0.00000000       0.33333333 </v>
    <v>      -0.27272727       0.00000000       0.33333333 </v>
    <v>      -0.18181818       0.00000000       0.33333333 </v>
    <v>      -0.09090909       0.00000000       0.33333333 </v>
    <v>       0.00000000       0.09090909       0.33333333 </v>
    <v>       0.09090909       0.09090909       0.33333333 </v>
    <v>       0.18181818       0.09090909       0.33333333 </v>
    <v>       0.27272727       0.09090909       0.33333333 </v>
    <v>       0.36363636       0.09090909       0.33333333 </v>
    <v>       0.45454545       0.09090909       0.33333333 </v>
    <v>      -0.45454545       0.09090909       0.33333333 </v>
    <v>      -0.36363636       0.09090909       0.33333333 </v>
    <v>      -0.27272727       0.09090909       0.33333333 </v>
    <v>      -0.18181818       0.09090909       0.33333333 </v>
    <v>      -0.09090909       0.09090909       0.33333333 </v>
    <v>       0.00000000       0.18181818       0.33333333 </v>
    <v>       0.09090909       0.18181818       0.33333333 </v>
    <v>       0.18181818       0.18181818       0.33333333 </v>
    <v>       0.27272727       0.18181818       0.33333333 </v>
    <v>       0.36363636       0.18181818       0.33333333 </v>
    <v>       0.45454545       0.18181818       0.33333333 </v>
    <v>      -0.45454545       0.18181818       0.33333333 </v>
    <v>      -0.36363636       0.18181818       0.33333333 </v>
    <v>      -0.27272727       0.18181818       0.33333333 </v>
    <v>      -0.18181818       0.18181818       0.33333333 </v>
    <v>      -0.09090909       0.18181818       0.33333333 </v>
    <v>       0.00000000       0.27272727       0.33333333 </v>
    <v>       0.09090909       0.27272727       0.33333333 </v>
    <v>       0.18181818       0.27272727       0.33333333 </v>
    <v>       0.27272727       0.27272727       0.33333333 </v>
    <v>       0.36363636       0.27272727       0.33333333 </v>
    <v>       0.45454545       0.27272727       0.33333333 </v>
    <v>      -0.45454545       0.27272727       0.33333333 </v>
    <v>      -0.36363636       0.27272727       0.33333333 </v>
    <v>      -0.27272727       0.27272727       0.33333333 </v>
    <v>      -0.18181818       0.27272727       0.33333333 </v>
    <v>      -0.09090909       0.27272727       0.33333333 </v>
    <v>       0.00000000       0.36363636       0.33333333 </v>
    <v>       0.09090909       0.36363636       0.33333333 </v>
    <v>       0.18181818       0.36363636       0.33333333 </v>
    <v>       0.27272727       0.36363636       0.33333333 </v>
    <v>       0.36363636       0.36363636       0.33333333 </v>
    <v>       0.45454545       0.36363636       0.33333333 </v>
    <v>      -0.45454545       0.36363636       0.33333333 </v>
    <v>      -0.36363636       0.36363636       0.33333333 </v>
    <v>      -0.27272727       0.36363636       0.33333333 </v>
    <v>      -0.18181818       0.36363636       0.33333333 </v>
    <v>      -0.09090909       0.36363636       0.33333333 </v>
    <v>       0.00000000       0.45454545       0.33333333 </v>
    <v>       0.09090909       0.45454545       0.33333333 </v>
    <v>       0.18181818       0.45454545       0.33333333 </v>
    <v>       0.27272727       0.45454545       0.33333333 </v>
    <v>       0.36363636       0.45454545       0.33333333 </v>
    <v>       0.45454545       0.45454545       0.33333333 </v>
    <v>      -0.45454545       0.45454545       0.33333333 </v>
    <v>      -0.36363636       0.45454545       0.33333333 </v>
    <v>      -0.27272727       0.45454545       0.33333333 </v>
    <v>      -0.18181818       0.45454545       0.33333333 </v>
    <v>      -0.09090909       0.45454545       0.33333333 </v>
    <v>       0.00000000       0.00000000       0.50000000 </v>
    <v>       0.09090909       0.00000000       0.50000000 </v>
    <v>       0.18181818       0.00000000       0.50000000 </v>
    <v>       0.27272727       0.00000000       0.50000000 </v>
    <v>       0.36363636       0.00000000       0.50000000 </v>
    <v>       0.45454545       0.00000000       0.50000000 </v>
    <v>       0.00000000       0.09090909       0.50000000 </v>
    <v>       0.09090909       0.09090909       0.50000000 </v>
    <v>       0.18181818       0.09090909       0.50000000 </v>
    <v>       0.27272727       0.09090909       0.50000000 </v>
    <v>       0.36363636       0.09090909       0.50000000 </v>
    <v>       0.45454545       0.09090909       0.50000000 </v>
    <v>       0.00000000       0.18181818       0.50000000 </v>
    <v>       0.09090909       0.18181818       0.50000000 </v>
    <v>       0.18181818       0.18181818       0.50000000 </v>
    <v>       0.27272727       0.18181818       0.50000000 </v>
    <v>       0.36363636       0.18181818       0.50000000 </v>
    <v>      -0.09090909       0.18181818       0.50000000 </v>
    <v>       0.00000000       0.27272727       0.50000000 </v>
    <v>       0.09090909       0.27272727       0.50000000 </v>
    <v>       0.18181818       0.27272727       0.50000000 </v>
    <v>       0.27272727       0.27272727       0.50000000 </v>
    <v>       0.36363636       0.27272727       0.50000000 </v>
    <v>      -0.18181818       0.27272727       0.50000000 </v>
    <v>       0.00000000       0.36363636       0.50000000 </v>
    <v>       0.09090909       0.36363636       0.50000000 </v>
    <v>       0.18181818       0.36363636       0.50000000 </v>
    <v>       0.27272727       0.36363636       0.50000000 </v>
    <v>      -0.27272727       0.36363636       0.50000000 </v>
    <v>      -0.18181818       0.36363636       0.50000000 </v>
    <v>       0.00000000       0.45454545       0.50000000 </v>
    <v>       0.09090909       0.45454545       0.50000000 </v>
    <v>       0.18181818       0.45454545       0.50000000 </v>
    <v>       0.27272727       0.45454545       0.50000000 </v>
    <v>      -0.36363636       0.45454545       0.50000000 </v>
    <v>      -0.27272727       0.45454545       0.50000000 </v>
   </varray>
   <varray name="weights" >
    <v>       0.00137741 </v>
    <v>       0.00275482 </v>
    <v>       0.00275482 </v>
    <v>       0.00275482 </v>
    <v>       0.00275482 </v>
    <v>       0.00275482 </v>
    <v>       0.00550964 </v>
    <v>       0.00550964 </v>
    <v>       0.00550964 </v>
    <v>       0.00550964 </v>
    <v>       0.00550964 </v>
    <v>       0.00275482 </v>
    <v>       0.00550964 </v>
    <v>       0.00550964 </v>
    <v>       0.00550964 </v>
    <v>       0.00550964 </v>
    <v>       0.00550964 </v>
    <v>       0.00275482 </v>
    <v>       0.00550964 </v>
    <v>       0.00550964 </v>
    <v>       0.00550964 </v>
    <v>       0.00550964 </v>
    <v>       0.00275482 </v>
    <v>       0.00550964 </v>
    <v>       0.00550964 </v>
    <v>       0.00550964 </v>
    <v>       0.00550964 </v>
    <v>       0.00550964 </v>
    <v>       0.00550964 </v>
    <v>       0.00275482 </v>
    <v>       0.00550964 </v>
    <v>       0.00550964 </v>
    <v>       0.00550964 </v>
    <v>       0.00275482 </v>
    <v>       0.00550964 </v>
    <v>       0.00550964 </v>
    <v>       0.00275482 </v>
    <v>       0.00275482 </v>
    <v>       0.00275482 </v>
    <v>       0.00275482 </v>
    <v>       0.00275482 </v>
    <v>       0.00275482 </v>
    <v>       0.00275482 </v>
    <v>       0.00275482 </v>
    <v>       0.00275482 </v>
    <v>       0.00275482 </v>
    <v>       0.00275482 </v>
    <v>       0.00550964 </v>
    <v>       0.00550964 </v>
    <v>       0.00550964 </v>
    <v>       0.00550964 </v>
    <v>       0.00550964 </v>
    <v>       0.00550964 </v>
    <v>       0.00550964 </v>
    <v>       0.00550964 </v>
    <v>       0.00550964 </v>
    <v>       0.00550964 </v>
    <v>       0.00550964 </v>
    <v>       0.00550964 </v>
    <v>       0.00550964 </v>
    <v>       0.00550964 </v>
    <v>       0.00550964 </v>
    <v>       0.00550964 </v>
    <v>       0.00550964 </v>
    <v>       0.00550964 </v>
    <v>       0.00550964 </v>
    <v>       0.00550964 </v>
    <v>       0.00550964 </v>
    <v>       0.00550964 </v>
    <v>       0.00550964 </v>
    <v>       0.00550964 </v>
    <v>       0.00550964 </v>
    <v>       0.00550964 </v>
    <v>       0.00550964 </v>
    <v>       0.00550964 </v>
    <v>       0.00550964 </v>
    <v>       0.00550964 </v>
    <v>       0.00550964 </v>
    <v>       0.00550964 </v>
    <v>       0.00550964 </v>
    <v>       0.00550964 </v>
    <v>       0.00550964 </v>
    <v>       0.00550964 </v>
    <v>       0.00550964 </v>
    <v>       0.00550964 </v>
    <v>       0.00550964 </v>
    <v>       0.00550964 </v>
    <v>       0.00550964 </v>
    <v>       0.00550964 </v>
    <v>       0.00550964 </v>
    <v>       0.00550964 </v>
    <v>       0.00550964 </v>
    <v>       0.00550964 </v>
    <v>       0.00550964 </v>
    <v>       0.00550964 </v>
    <v>       0.00550964 </v>
    <v>       0.00550964 </v>
    <v>       0.00550964 </v>
    <v>       0.00550964 </v>
    <v>       0.00550964 </v>
    <v>       0.00550964 </v>
    <v>       0.00550964 </v>
    <v>       0.00275482 </v>
    <v>       0.00275482 </v>
    <v>       0.00275482 </v>
    <v>       0.00275482 </v>
    <v>       0.00275482 </v>
    <v>       0.00275482 </v>
    <v>       0.00275482 </v>
    <v>       0.00275482 </v>
    <v>       0.00275482 </v>
    <v>       0.00275482 </v>
    <v>       0.00275482 </v>
    <v>       0.00550964 </v>
    <v>       0.00550964 </v>
    <v>       0.00550964 </v>
    <v>       0.00550964 </v>
    <v>       0.00550964 </v>
    <v>       0.00550964 </v>
    <v>       0.00550964 </v>
    <v>       0.00550964 </v>
    <v>       0.00550964 </v>
    <v>       0.00550964 </v>
    <v>       0.00550964 </v>
    <v>       0.00550964 </v>
    <v>       0.00550964 </v>
    <v>       0.00550964 </v>
    <v>       0.00550964 </v>
    <v>       0.00550964 </v>
    <v>       0.00550964 </v>
    <v>       0.00550964 </v>
    <v>       0.00550964 </v>
    <v>       0.00550964 </v>
    <v>       0.00550964 </v>
    <v>       0.00550964 </v>
    <v>       0.00550964 </v>
    <v>       0.00550964 </v>
    <v>       0.00550964 </v>
    <v>       0.00550964 </v>
    <v>       0.00550964 </v>
    <v>       0.00550964 </v>
    <v>       0.00550964 </v>
    <v>       0.00550964 </v>
    <v>       0.00550964 </v>
    <v>       0.00550964 </v>
    <v>       0.00550964 </v>
    <v>       0.00550964 </v>
    <v>       0.00550964 </v>
    <v>       0.00550964 </v>
    <v>       0.00550964 </v>
    <v>       0.00550964 </v>
    <v>       0.00550964 </v>
    <v>       0.00550964 </v>
    <v>       0.00550964 </v>
    <v>       0.00550964 </v>
    <v>       0.00550964 </v>
    <v>       0.00550964 </v>
    <v>       0.00550964 </v>
    <v>       0.00550964 </v>
    <v>       0.00550964 </v>
    <v>       0.00550964 </v>
    <v>       0.00550964 </v>
    <v>       0.00550964 </v>
    <v>       0.00550964 </v>
    <v>       0.00550964 </v>
    <v>       0.00550964 </v>
    <v>       0.00550964 </v>
    <v>       0.00550964 </v>
    <v>       0.00137741 </v>
    <v>       0.00275482 </v>
    <v>       0.00275482 </v>
    <v>       0.00275482 </v>
    <v>       0.00275482 </v>
    <v>       0.00275482 </v>
    <v>       0.00550964 </v>
    <v>       0.00550964 </v>
    <v>       0.00550964 </v>
    <v>       0.00550964 </v>
    <v>       0.00550964 </v>
    <v>       0.00275482 </v>
    <v>       0.00550964 </v>
    <v>       0.00550964 </v>
    <v>       0.00550964 </v>
    <v>       0.00550964 </v>
    <v>       0.00550964 </v>
    <v>       0.00275482 </v>
    <v>       0.00550964 </v>
    <v>       0.00550964 </v>
    <v>       0.00550964 </v>
    <v>       0.00550964 </v>
    <v>       0.00275482 </v>
    <v>       0.00550964 </v>
    <v>       0.00550964 </v>
    <v>       0.00550964 </v>
    <v>       0.00550964 </v>
    <v>       0.00550964 </v>
    <v>       0.00550964 </v>
    <v>       0.00275482 </v>
    <v>       0.00550964 </v>
    <v>       0.00550964 </v>
    <v>       0.00550964 </v>
    <v>       0.00275482 </v>
    <v>       0.00550964 </v>
    <v>       0.00550964 </v>
   </varray>
  </kpoints>
  <scstep>
   <time name="total">   19.25   19.31</time>
   <energy>
    <i name="e_fr_energy">     -0.54718699 </i>
    <i name="e_wo_entrp">     -0.54718699 </i>
    <i name="e_0_energy">     -0.54718699 </i>
   </energy>
  </scstep>
  <scstep>
   <time name="total">   27.30   27.37</time>
   <energy>
    <i name="e_fr_energy">     -0.66580257 </i>
    <i name="e_wo_entrp">     -0.66580257 </i>
    <i name="e_0_energy">     -0.66580257 </i>
   </energy>
  </scstep>
  <scstep>
   <time name="total">   27.62   27.70</time>
   <energy>
    <i name="e_fr_energy">     -0.66046190 </i>
    <i name="e_wo_entrp">     -0.66046190 </i>
    <i name="e_0_energy">     -0.66046190 </i>
   </energy>
  </scstep>
  <scstep>
   <time name="total">   27.87   27.96</time>
   <energy>
    <i name="e_fr_energy">     -0.68148117 </i>
    <i name="e_wo_entrp">     -0.68148117 </i>
    <i name="e_0_energy">     -0.68148117 </i>
   </energy>
  </scstep>
  <scstep>
   <time name="total">   27.37   27.50</time>
   <energy>
    <i name="e_fr_energy">     -0.68456095 </i>
    <i name="e_wo_entrp">     -0.68456095 </i>
    <i name="e_0_energy">     -0.68456095 </i>
   </energy>
  </scstep>
  <scstep>
   <time name="total">   27.62   27.72</time>
   <energy>
    <i name="e_fr_energy">     -0.68519568 </i>
    <i name="e_wo_entrp">     -0.68519568 </i>
    <i name="e_0_energy">     -0.68519568 </i>
   </energy>
  </scstep>
  <scstep>
   <time name="total">   27.51   27.57</time>
   <energy>
    <i name="e_fr_energy">     -0.68535852 </i>
    <i name="e_wo_entrp">     -0.68535852 </i>
    <i name="e_0_energy">     -0.68535852 </i>
   </energy>
  </scstep>
  <scstep>
   <time name="total">   23.93   23.97</time>
   <energy>
    <i name="e_fr_energy">     -0.68537278 </i>
    <i name="e_wo_entrp">     -0.68537278 </i>
    <i name="e_0_energy">     -0.68537278 </i>
   </energy>
  </scstep>
  <scstep>
   <time name="total">   25.31   25.35</time>
   <energy>
    <i name="e_fr_energy">     -0.68538025 </i>
    <i name="e_wo_entrp">     -0.68538025 </i>
    <i name="e_0_energy">     -0.68538025 </i>
   </energy>
  </scstep>
  <scstep>
   <time name="total">   20.19   21.60</time>
   <energy>
    <i name="e_fr_energy">     -0.68537763 </i>
    <i name="e_wo_entrp">     -0.68537763 </i>
    <i name="e_0_energy">     -0.68537763 </i>
   </energy>
  </scstep>
  <kpoints>
   <generation param="Gamma">
    <v type="int" name="divisions">      11       11        6 </v>
    <v name="usershift">      0.00000000       0.00000000       0.00000000 </v>
    <v name="genvec1">      0.09090909       0.00000000       0.00000000 </v>
    <v name="genvec2">      0.00000000       0.09090909       0.00000000 </v>
    <v name="genvec3">      0.00000000       0.00000000       0.16666667 </v>
    <v name="shift">      0.00000000       0.00000000       0.00000000 </v>
   </generation>
   <varray name="kpointlist" >
    <v>       0.00000000       0.00000000       0.00000000 </v>
    <v>       0.09090909       0.00000000       0.00000000 </v>
    <v>       0.18181818       0.00000000       0.00000000 </v>
    <v>       0.27272727       0.00000000       0.00000000 </v>
    <v>       0.36363636       0.00000000       0.00000000 </v>
    <v>       0.45454545       0.00000000       0.00000000 </v>
    <v>       0.00000000       0.09090909       0.00000000 </v>
    <v>       0.09090909       0.09090909       0.00000000 </v>
    <v>       0.18181818       0.09090909       0.00000000 </v>
    <v>       0.27272727       0.09090909       0.00000000 </v>
    <v>       0.36363636       0.09090909       0.00000000 </v>
    <v>       0.45454545       0.09090909       0.00000000 </v>
    <v>       0.00000000       0.18181818       0.00000000 </v>
    <v>       0.09090909       0.18181818       0.00000000 </v>
    <v>       0.18181818       0.18181818       0.00000000 </v>
    <v>       0.27272727       0.18181818       0.00000000 </v>
    <v>       0.36363636       0.18181818       0.00000000 </v>
    <v>      -0.09090909       0.18181818       0.00000000 </v>
    <v>       0.00000000       0.27272727       0.00000000 </v>
    <v>       0.09090909       0.27272727       0.00000000 </v>
    <v>       0.18181818       0.27272727       0.00000000 </v>
    <v>       0.27272727       0.27272727       0.00000000 </v>
    <v>       0.36363636       0.27272727       0.00000000 </v>
    <v>      -0.18181818       0.27272727       0.00000000 </v>
    <v>       0.00000000       0.36363636       0.00000000 </v>
    <v>       0.09090909       0.36363636       0.00000000 </v>
    <v>       0.18181818       0.36363636       0.00000000 </v>
    <v>       0.27272727       0.36363636       0.00000000 </v>
    <v>      -0.27272727       0.36363636       0.00000000 </v>
    <v>      -0.18181818       0.36363636       0.00000000 </v>
    <v>       0.00000000       0.45454545       0.00000000 </v>
    <v>       0.09090909       0.45454545       0.00000000 </v>
    <v>       0.18181818       0.45454545       0.00000000 </v>
    <v>       0.27272727       0.45454545       0.00000000 </v>
    <v>      -0.36363636       0.45454545       0.00000000 </v>
    <v>      -0.27272727       0.45454545       0.00000000 </v>
    <v>       0.00000000       0.00000000       0.16666667 </v>
    <v>       0.09090909       0.00000000       0.16666667 </v>
    <v>       0.18181818       0.00000000       0.16666667 </v>
    <v>       0.27272727       0.00000000       0.16666667 </v>
    <v>       0.36363636       0.00000000       0.16666667 </v>
    <v>       0.45454545       0.00000000       0.16666667 </v>
    <v>       0.00000000       0.09090909       0.16666667 </v>
    <v>       0.09090909       0.09090909       0.16666667 </v>
    <v>       0.18181818       0.09090909       0.16666667 </v>
    <v>       0.27272727       0.09090909       0.16666667 </v>
    <v>       0.36363636       0.09090909       0.16666667 </v>
    <v>       0.45454545       0.09090909       0.16666667 </v>
    <v>       0.00000000       0.18181818       0.16666667 </v>
    <v>       0.09090909       0.18181818       0.16666667 </v>
    <v>       0.18181818       0.18181818       0.16666667 </v>
    <v>       0.27272727       0.18181818       0.16666667 </v>
    <v>       0.36363636       0.18181818       0.16666667 </v>
    <v>      -0.09090909       0.18181818       0.16666667 </v>
    <v>       0.00000000       0.27272727       0.16666667 </v>
    <v>       0.09090909       0.27272727       0.16666667 </v>
    <v>       0.18181818       0.27272727       0.16666667 </v>
    <v>       0.27272727       0.27272727       0.16666667 </v>
    <v>       0.36363636       0.27272727       0.16666667 </v>
    <v>      -0.18181818       0.27272727       0.16666667 </v>
    <v>       0.00000000       0.36363636       0.16666667 </v>
    <v>       0.09090909       0.36363636       0.16666667 </v>
    <v>       0.18181818       0.36363636       0.16666667 </v>
    <v>       0.27272727       0.36363636       0.16666667 </v>
    <v>      -0.27272727       0.36363636       0.16666667 </v>
    <v>      -0.18181818       0.36363636       0.16666667 </v>
    <v>       0.00000000       0.45454545       0.16666667 </v>
    <v>       0.09090909       0.45454545       0.16666667 </v>
    <v>       0.18181818       0.45454545       0.16666667 </v>
    <v>       0.27272727       0.45454545       0.16666667 </v>
    <v>      -0.36363636       0.45454545       0.16666667 </v>
    <v>      -0.27272727       0.45454545       0.16666667 </v>
    <v>       0.00000000      -0.45454545       0.16666667 </v>
    <v>       0.09090909      -0.45454545       0.16666667 </v>
    <v>       0.18181818      -0.45454545       0.16666667 </v>
    <v>      -0.45454545      -0.45454545       0.16666667 </v>
    <v>      -0.36363636      -0.45454545       0.16666667 </v>
    <v>      -0.27272727      -0.45454545       0.16666667 </v>
    <v>       0.00000000      -0.36363636       0.16666667 </v>
    <v>       0.09090909      -0.36363636       0.16666667 </v>
    <v>       0.18181818      -0.36363636       0.16666667 </v>
    <v>       0.45454545      -0.36363636       0.16666667 </v>
    <v>      -0.45454545      -0.36363636       0.16666667 </v>
    <v>      -0.36363636      -0.36363636       0.16666667 </v>
    <v>       0.00000000      -0.27272727       0.16666667 </v>
    <v>       0.09090909      -0.27272727       0.16666667 </v>
    <v>       0.36363636      -0.27272727       0.16666667 </v>
    <v>       0.45454545      -0.27272727       0.16666667 </v>
    <v>      -0.45454545      -0.27272727       0.16666667 </v>
    <v>      -0.36363636      -0.27272727       0.16666667 </v>
    <v>       0.00000000      -0.18181818       0.16666667 </v>
    <v>       0.09090909      -0.18181818       0.16666667 </v>
    <v>       0.27272727      -0.18181818       0.16666667 </v>
    <v>       0.36363636      -0.18181818       0.16666667 </v>
    <v>       0.45454545      -0.18181818       0.16666667 </v>
    <v>      -0.45454545      -0.18181818       0.16666667 </v>
    <v>       0.00000000      -0.09090909       0.16666667 </v>
    <v>       0.18181818      -0.09090909       0.16666667 </v>
    <v>       0.27272727      -0.09090909       0.16666667 </v>
    <v>       0.36363636      -0.09090909       0.16666667 </v>
    <v>       0.45454545      -0.09090909       0.16666667 </v>
    <v>      -0.45454545      -0.09090909       0.16666667 </v>
    <v>       0.00000000       0.00000000       0.33333333 </v>
    <v>       0.09090909       0.00000000       0.33333333 </v>
    <v>       0.18181818       0.00000000       0.33333333 </v>
    <v>       0.27272727       0.00000000       0.33333333 </v>
    <v>       0.36363636       0.00000000       0.33333333 </v>
    <v>       0.45454545       0.00000000       0.33333333 </v>
    <v>       0.00000000       0.09090909       0.33333333 </v>
    <v>       0.09090909       0.09090909       0.33333333 </v>
    <v>       0.18181818       0.09090909       0.33333333 </v>
    <v>       0.27272727       0.09090909       0.33333333 </v>
    <v>       0.36363636       0.09090909       0.33333333 </v>
    <v>       0.45454545       0.09090909       0.33333333 </v>
    <v>       0.00000000       0.18181818       0.33333333 </v>
    <v>       0.09090909       0.18181818       0.33333333 </v>
    <v>       0.18181818       0.18181818       0.33333333 </v>
    <v>       0.27272727       0.18181818       0.33333333 </v>
    <v>       0.36363636       0.18181818       0.33333333 </v>
    <v>      -0.09090909       0.18181818       0.33333333 </v>
    <v>       0.00000000       0.27272727       0.33333333 </v>
    <v>       0.09090909       0.27272727       0.33333333 </v>
    <v>       0.18181818       0.27272727       0.33333333 </v>
    <v>       0.27272727       0.27272727       0.33333333 </v>
    <v>       0.36363636       0.27272727       0.33333333 </v>
    <v>      -0.18181818       0.27272727       0.33333333 </v>
    <v>       0.00000000       0.36363636       0.33333333 </v>
    <v>       0.09090909       0.36363636       0.33333333 </v>
    <v>       0.18181818       0.36363636       0.33333333 </v>
    <v>       0.27272727       0.36363636       0.33333333 </v>
    <v>      -0.27272727       0.36363636       0.33333333 </v>
    <v>      -0.18181818       0.36363636       0.33333333 </v>
    <v>       0.00000000       0.45454545       0.33333333 </v>
    <v>       0.09090909       0.45454545       0.33333333 </v>
    <v>       0.18181818       0.45454545       0.33333333 </v>
    <v>       0.27272727       0.45454545       0.33333333 </v>
    <v>      -0.36363636       0.45454545       0.33333333 </v>
    <v>      -0.27272727       0.45454545       0.33333333 </v>
    <v>       0.00000000      -0.45454545       0.33333333 </v>
    <v>       0.09090909      -0.45454545       0.33333333 </v>
    <v>       0.18181818      -0.45454545       0.33333333 </v>
    <v>      -0.45454545      -0.45454545       0.33333333 </v>
    <v>      -0.36363636      -0.45454545       0.33333333 </v>
    <v>      -0.27272727      -0.45454545       0.33333333 </v>
    <v>       0.00000000      -0.36363636       0.33333333 </v>
    <v>       0.09090909      -0.36363636       0.33333333 </v>
    <v>       0.18181818      -0.36363636       0.33333333 </v>
    <v>       0.45454545      -0.36363636       0.33333333 </v>
    <v>      -0.45454545      -0.36363636       0.33333333 </v>
    <v>      -0.36363636      -0.36363636       0.33333333 </v>
    <v>       0.00000000      -0.27272727       0.33333333 </v>
    <v>       0.09090909      -0.27272727       0.33333333 </v>
    <v>       0.36363636      -0.27272727       0.33333333 </v>
    <v>       0.45454545      -0.27272727       0.33333333 </v>
    <v>      -0.45454545      -0.27272727       0.33333333 </v>
    <v>      -0.36363636      -0.27272727       0.33333333 </v>
    <v>       0.00000000      -0.18181818       0.33333333 </v>
    <v>       0.09090909      -0.18181818       0.33333333 </v>
    <v>       0.27272727      -0.18181818       0.33333333 </v>
    <v>       0.36363636      -0.18181818       0.33333333 </v>
    <v>       0.45454545      -0.18181818       0.33333333 </v>
    <v>      -0.45454545      -0.18181818       0.33333333 </v>
    <v>       0.00000000      -0.09090909       0.33333333 </v>
    <v>       0.18181818      -0.09090909       0.33333333 </v>
    <v>       0.27272727      -0.09090909       0.33333333 </v>
    <v>       0.36363636      -0.09090909       0.33333333 </v>
    <v>       0.45454545      -0.09090909       0.33333333 </v>
    <v>      -0.45454545      -0.09090909       0.33333333 </v>
    <v>       0.00000000       0.00000000       0.50000000 </v>
    <v>       0.09090909       0.00000000       0.50000000 </v>
    <v>       0.18181818       0.00000000       0.50000000 </v>
    <v>       0.27272727       0.00000000       0.50000000 </v>
    <v>       0.36363636       0.00000000       0.50000000 </v>
    <v>       0.45454545       0.00000000       0.50000000 </v>
    <v>       0.00000000       0.09090909       0.50000000 </v>
    <v>       0.09090909       0.09090909       0.50000000 </v>
    <v>       0.18181818       0.09090909       0.50000000 </v>
    <v>       0.27272727       0.09090909       0.50000000 </v>
    <v>       0.36363636       0.09090909       0.50000000 </v>
    <v>       0.45454545       0.09090909       0.50000000 </v>
    <v>       0.00000000       0.18181818       0.50000000 </v>
    <v>       0.09090909       0.18181818       0.50000000 </v>
    <v>       0.18181818       0.18181818       0.50000000 </v>
    <v>       0.27272727       0.18181818       0.50000000 </v>
    <v>       0.36363636       0.18181818       0.50000000 </v>
    <v>      -0.09090909       0.18181818       0.50000000 </v>
    <v>       0.00000000       0.27272727       0.50000000 </v>
    <v>       0.09090909       0.27272727       0.50000000 </v>
    <v>       0.18181818       0.27272727       0.50000000 </v>
    <v>       0.27272727       0.27272727       0.50000000 </v>
    <v>       0.36363636       0.27272727       0.50000000 </v>
    <v>      -0.18181818       0.27272727       0.50000000 </v>
    <v>       0.00000000       0.36363636       0.50000000 </v>
    <v>       0.09090909       0.36363636       0.50000000 </v>
    <v>       0.18181818       0.36363636       0.50000000 </v>
    <v>       0.27272727       0.36363636       0.50000000 </v>
    <v>      -0.27272727       0.36363636       0.50000000 </v>
    <v>      -0.18181818       0.36363636       0.50000000 </v>
    <v>       0.00000000       0.45454545       0.50000000 </v>
    <v>       0.09090909       0.45454545       0.50000000 </v>
    <v>       0.18181818       0.45454545       0.50000000 </v>
    <v>       0.27272727       0.45454545       0.50000000 </v>
    <v>      -0.36363636       0.45454545       0.50000000 </v>
    <v>      -0.27272727       0.45454545       0.50000000 </v>
   </varray>
   <varray name="weights" >
    <v>       0.00137741 </v>
    <v>       0.00275482 </v>
    <v>       0.00275482 </v>
    <v>       0.00275482 </v>
    <v>       0.00275482 </v>
    <v>       0.00275482 </v>
    <v>       0.00550964 </v>
    <v>       0.00550964 </v>
    <v>       0.00550964 </v>
    <v>       0.00550964 </v>
    <v>       0.00550964 </v>
    <v>       0.00275482 </v>
    <v>       0.00550964 </v>
    <v>       0.00550964 </v>
    <v>       0.00550964 </v>
    <v>       0.00550964 </v>
    <v>       0.00550964 </v>
    <v>       0.00275482 </v>
    <v>       0.00550964 </v>
    <v>       0.00550964 </v>
    <v>       0.00550964 </v>
    <v>       0.00550964 </v>
    <v>       0.00275482 </v>
    <v>       0.00550964 </v>
    <v>       0.00550964 </v>
    <v>       0.00550964 </v>
    <v>       0.00550964 </v>
    <v>       0.00550964 </v>
    <v>       0.00550964 </v>
    <v>       0.00275482 </v>
    <v>       0.00550964 </v>
    <v>       0.00550964 </v>
    <v>       0.00550964 </v>
    <v>       0.00275482 </v>
    <v>       0.00550964 </v>
    <v>       0.00550964 </v>
    <v>       0.00275482 </v>
    <v>       0.00550964 </v>
    <v>       0.00550964 </v>
    <v>       0.00550964 </v>
    <v>       0.00550964 </v>
    <v>       0.00550964 </v>
    <v>       0.00550964 </v>
    <v>       0.00550964 </v>
    <v>       0.00550964 </v>
    <v>       0.00550964 </v>
    <v>       0.00550964 </v>
    <v>       0.00275482 </v>
    <v>       0.00550964 </v>
    <v>       0.00550964 </v>
    <v>       0.00550964 </v>
    <v>       0.00550964 </v>
    <v>       0.00550964 </v>
    <v>       0.00275482 </v>
    <v>       0.00550964 </v>
    <v>       0.00550964 </v>
    <v>       0.00550964 </v>
    <v>       0.00550964 </v>
    <v>       0.00275482 </v>
    <v>       0.00550964 </v>
    <v>       0.00550964 </v>
    <v>       0.00550964 </v>
    <v>       0.00550964 </v>
    <v>       0.00550964 </v>
    <v>       0.00550964 </v>
    <v>       0.00275482 </v>
    <v>       0.00550964 </v>
    <v>       0.00550964 </v>
    <v>       0.00550964 </v>
    <v>       0.00275482 </v>
    <v>       0.00550964 </v>
    <v>       0.00550964 </v>
    <v>       0.00550964 </v>
    <v>       0.00550964 </v>
    <v>       0.00550964 </v>
    <v>       0.00550964 </v>
    <v>       0.00550964 </v>
    <v>       0.00275482 </v>
    <v>       0.00550964 </v>
    <v>       0.00550964 </v>
    <v>       0.00275482 </v>
    <v>       0.00550964 </v>
    <v>       0.00550964 </v>
    <v>       0.00550964 </v>
    <v>       0.00550964 </v>
    <v>       0.00550964 </v>
    <v>       0.00550964 </v>
    <v>       0.00550964 </v>
    <v>       0.00550964 </v>
    <v>       0.00275482 </v>
    <v>       0.00550964 </v>
    <v>       0.00275482 </v>
    <v>       0.00550964 </v>
    <v>       0.00550964 </v>
    <v>       0.00550964 </v>
    <v>       0.00550964 </v>
    <v>       0.00550964 </v>
    <v>       0.00550964 </v>
    <v>       0.00550964 </v>
    <v>       0.00550964 </v>
    <v>       0.00550964 </v>
    <v>       0.00275482 </v>
    <v>       0.00275482 </v>
    <v>       0.00550964 </v>
    <v>       0.00550964 </v>
    <v>       0.00550964 </v>
    <v>       0.00550964 </v>
    <v>       0.00550964 </v>
    <v>       0.00550964 </v>
    <v>       0.00550964 </v>
    <v>       0.00550964 </v>
    <v>       0.00550964 </v>
    <v>       0.00550964 </v>
    <v>       0.00275482 </v>
    <v>       0.00550964 </v>
    <v>       0.00550964 </v>
    <v>       0.00550964 </v>
    <v>       0.00550964 </v>
    <v>       0.00550964 </v>
    <v>       0.00275482 </v>
    <v>       0.00550964 </v>
    <v>       0.00550964 </v>
    <v>       0.00550964 </v>
    <v>       0.00550964 </v>
    <v>       0.00275482 </v>
    <v>       0.00550964 </v>
    <v>       0.00550964 </v>
    <v>       0.00550964 </v>
    <v>       0.00550964 </v>
    <v>       0.00550964 </v>
    <v>       0.00550964 </v>
    <v>       0.00275482 </v>
    <v>       0.00550964 </v>
    <v>       0.00550964 </v>
    <v>       0.00550964 </v>
    <v>       0.00275482 </v>
    <v>       0.00550964 </v>
    <v>       0.00550964 </v>
    <v>       0.00550964 </v>
    <v>       0.00550964 </v>
    <v>       0.00550964 </v>
    <v>       0.00550964 </v>
    <v>       0.00550964 </v>
    <v>       0.00275482 </v>
    <v>       0.00550964 </v>
    <v>       0.00550964 </v>
    <v>       0.00275482 </v>
    <v>       0.00550964 </v>
    <v>       0.00550964 </v>
    <v>       0.00550964 </v>
    <v>       0.00550964 </v>
    <v>       0.00550964 </v>
    <v>       0.00550964 </v>
    <v>       0.00550964 </v>
    <v>       0.00550964 </v>
    <v>       0.00275482 </v>
    <v>       0.00550964 </v>
    <v>       0.00275482 </v>
    <v>       0.00550964 </v>
    <v>       0.00550964 </v>
    <v>       0.00550964 </v>
    <v>       0.00550964 </v>
    <v>       0.00550964 </v>
    <v>       0.00550964 </v>
    <v>       0.00550964 </v>
    <v>       0.00550964 </v>
    <v>       0.00550964 </v>
    <v>       0.00275482 </v>
    <v>       0.00137741 </v>
    <v>       0.00275482 </v>
    <v>       0.00275482 </v>
    <v>       0.00275482 </v>
    <v>       0.00275482 </v>
    <v>       0.00275482 </v>
    <v>       0.00550964 </v>
    <v>       0.00550964 </v>
    <v>       0.00550964 </v>
    <v>       0.00550964 </v>
    <v>       0.00550964 </v>
    <v>       0.00275482 </v>
    <v>       0.00550964 </v>
    <v>       0.00550964 </v>
    <v>       0.00550964 </v>
    <v>       0.00550964 </v>
    <v>       0.00550964 </v>
    <v>       0.00275482 </v>
    <v>       0.00550964 </v>
    <v>       0.00550964 </v>
    <v>       0.00550964 </v>
    <v>       0.00550964 </v>
    <v>       0.00275482 </v>
    <v>       0.00550964 </v>
    <v>       0.00550964 </v>
    <v>       0.00550964 </v>
    <v>       0.00550964 </v>
    <v>       0.00550964 </v>
    <v>       0.00550964 </v>
    <v>       0.00275482 </v>
    <v>       0.00550964 </v>
    <v>       0.00550964 </v>
    <v>       0.00550964 </v>
    <v>       0.00275482 </v>
    <v>       0.00550964 </v>
    <v>       0.00550964 </v>
   </varray>
  </kpoints>
  <scstep>
   <time name="total">   19.32   19.35</time>
   <energy>
    <i name="e_fr_energy">     -0.54660740 </i>
    <i name="e_wo_entrp">     -0.54660740 </i>
    <i name="e_0_energy">     -0.54660740 </i>
   </energy>
  </scstep>
  <scstep>
   <time name="total">   27.43   27.48</time>
   <energy>
    <i name="e_fr_energy">     -0.66581644 </i>
    <i name="e_wo_entrp">     -0.66581644 </i>
    <i name="e_0_energy">     -0.66581644 </i>
   </energy>
  </scstep>
  <scstep>
   <time name="total">   27.24   27.80</time>
   <energy>
    <i name="e_fr_energy">     -0.66046000 </i>
    <i name="e_wo_entrp">     -0.66046000 </i>
    <i name="e_0_energy">     -0.66046000 </i>
   </energy>
  </scstep>
  <scstep>
   <time name="total">   27.99   28.03</time>
   <energy>
    <i name="e_fr_energy">     -0.68148351 </i>
    <i name="e_wo_entrp">     -0.68148351 </i>
    <i name="e_0_energy">     -0.68148351 </i>
   </energy>
  </scstep>
  <scstep>
   <time name="total">   27.52   27.56</time>
   <energy>
    <i name="e_fr_energy">     -0.68456324 </i>
    <i name="e_wo_entrp">     -0.68456324 </i>
    <i name="e_0_energy">     -0.68456324 </i>
   </energy>
  </scstep>
  <scstep>
   <time name="total">   27.70   27.75</time>
   <energy>
    <i name="e_fr_energy">     -0.68519462 </i>
    <i name="e_wo_entrp">     -0.68519462 </i>
    <i name="e_0_energy">     -0.68519462 </i>
   </energy>
  </scstep>
  <scstep>
   <time name="total">   27.51   27.68</time>
   <energy>
    <i name="e_fr_energy">     -0.68535948 </i>
    <i name="e_wo_entrp">     -0.68535948 </i>
    <i name="e_0_energy">     -0.68535948 </i>
   </energy>
  </scstep>
  <scstep>
   <time name="total">   24.62   25.08</time>
   <energy>
    <i name="e_fr_energy">     -0.68538191 </i>
    <i name="e_wo_entrp">     -0.68538191 </i>
    <i name="e_0_energy">     -0.68538191 </i>
   </energy>
  </scstep>
  <scstep>
   <time name="total">   23.68   23.91</time>
   <energy>
    <i name="e_fr_energy">     -0.68537840 </i>
    <i name="e_wo_entrp">     -0.68537840 </i>
    <i name="e_0_energy">     -0.68537840 </i>
   </energy>
  </scstep>
  <kpoints>
   <generation param="Gamma">
    <v type="int" name="divisions">      11       11        6 </v>
    <v name="usershift">      0.00000000       0.00000000       0.00000000 </v>
    <v name="genvec1">      0.09090909       0.00000000       0.00000000 </v>
    <v name="genvec2">      0.00000000       0.09090909       0.00000000 </v>
    <v name="genvec3">      0.00000000       0.00000000       0.16666667 </v>
    <v name="shift">      0.00000000       0.00000000       0.00000000 </v>
   </generation>
   <varray name="kpointlist" >
    <v>       0.00000000       0.00000000       0.00000000 </v>
    <v>       0.09090909       0.00000000       0.00000000 </v>
    <v>       0.18181818       0.00000000       0.00000000 </v>
    <v>       0.27272727       0.00000000       0.00000000 </v>
    <v>       0.36363636       0.00000000       0.00000000 </v>
    <v>       0.45454545       0.00000000       0.00000000 </v>
    <v>       0.09090909       0.09090909       0.00000000 </v>
    <v>       0.18181818       0.09090909       0.00000000 </v>
    <v>       0.27272727       0.09090909       0.00000000 </v>
    <v>       0.36363636       0.09090909       0.00000000 </v>
    <v>       0.45454545       0.09090909       0.00000000 </v>
    <v>       0.18181818       0.18181818       0.00000000 </v>
    <v>       0.27272727       0.18181818       0.00000000 </v>
    <v>       0.36363636       0.18181818       0.00000000 </v>
    <v>       0.27272727       0.27272727       0.00000000 </v>
    <v>       0.36363636       0.27272727       0.00000000 </v>
    <v>       0.00000000       0.00000000       0.16666667 </v>
    <v>       0.09090909       0.00000000       0.16666667 </v>
    <v>       0.18181818       0.00000000       0.16666667 </v>
    <v>       0.27272727       0.00000000       0.16666667 </v>
    <v>       0.36363636       0.00000000       0.16666667 </v>
    <v>       0.45454545       0.00000000       0.16666667 </v>
    <v>       0.09090909       0.09090909       0.16666667 </v>
    <v>       0.18181818       0.09090909       0.16666667 </v>
    <v>       0.27272727       0.09090909       0.16666667 </v>
    <v>       0.36363636       0.09090909       0.16666667 </v>
    <v>       0.45454545       0.09090909       0.16666667 </v>
    <v>       0.18181818       0.18181818       0.16666667 </v>
    <v>       0.27272727       0.18181818       0.16666667 </v>
    <v>       0.36363636       0.18181818       0.16666667 </v>
    <v>       0.27272727       0.27272727       0.16666667 </v>
    <v>       0.36363636       0.27272727       0.16666667 </v>
    <v>       0.00000000       0.00000000       0.33333333 </v>
    <v>       0.09090909       0.00000000       0.33333333 </v>
    <v>       0.18181818       0.00000000       0.33333333 </v>
    <v>       0.27272727       0.00000000       0.33333333 </v>
    <v>       0.36363636       0.00000000       0.33333333 </v>
    <v>       0.45454545       0.00000000       0.33333333 </v>
    <v>       0.09090909       0.09090909       0.33333333 </v>
    <v>       0.18181818       0.09090909       0.33333333 </v>
    <v>       0.27272727       0.09090909       0.33333333 </v>
    <v>       0.36363636       0.09090909       0.33333333 </v>
    <v>       0.45454545       0.09090909       0.33333333 </v>
    <v>       0.18181818       0.18181818       0.33333333 </v>
    <v>       0.27272727       0.18181818       0.33333333 </v>
    <v>       0.36363636       0.18181818       0.33333333 </v>
    <v>       0.27272727       0.27272727       0.33333333 </v>
    <v>       0.36363636       0.27272727       0.33333333 </v>
    <v>       0.00000000       0.00000000       0.50000000 </v>
    <v>       0.09090909       0.00000000       0.50000000 </v>
    <v>       0.18181818       0.00000000       0.50000000 </v>
    <v>       0.27272727       0.00000000       0.50000000 </v>
    <v>       0.36363636       0.00000000       0.50000000 </v>
    <v>       0.45454545       0.00000000       0.50000000 </v>
    <v>       0.09090909       0.09090909       0.50000000 </v>
    <v>       0.18181818       0.09090909       0.50000000 </v>
    <v>       0.27272727       0.09090909       0.50000000 </v>
    <v>       0.36363636       0.09090909       0.50000000 </v>
[...]
       <r>   -0.3526    1.0000 </r>
       <r>    7.2438    0.0000 </r>
       <r>    7.2438    0.0000 </r>
       <r>    9.1142    0.0000 </r>
       <r>    9.1142    0.0000 </r>
       <r>   10.6446    0.0000 </r>
       <r>   10.6446    0.0000 </r>
       <r>   15.0204    0.0000 </r>
       <r>   15.0204    0.0000 </r>
       <r>   17.0033    0.0000 </r>
       <r>   17.0033    0.0000 </r>
       <r>   20.9855    0.0000 </r>
       <r>   20.9855    0.0000 </r>
       <r>   23.1234    0.0000 </r>
       <r>   23.1234    0.0000 </r>
       <r>   26.3024    0.0000 </r>
       <r>   26.3024    0.0000 </r>
       <r>   27.9726    0.0000 </r>
       <r>   27.9726    0.0000 </r>
       <r>   30.2425    0.0000 </r>
       <r>   30.2425    0.0000 </r>
       <r>   33.0052    0.0000 </r>
       <r>   33.0052    0.0000 </r>
      </set>
      <set comment="kpoint 63">
       <r>  -16.1749    1.0000 </r>
       <r>  -16.1749    1.0000 </r>
       <r>   -4.7677    1.0000 </r>
       <r>   -4.7677    1.0000 </r>
       <r>   -4.3903    1.0000 </r>
       <r>   -4.3903    1.0000 </r>
       <r>   -4.0918    1.0000 </r>
       <r>   -4.0918    1.0000 </r>
       <r>   -3.5289    1.0000 </r>
       <r>   -3.5289    1.0000 </r>
       <r>   -3.2409    1.0000 </r>
       <r>   -3.2409    1.0000 </r>
       <r>   -2.6427    1.0000 </r>
       <r>   -2.6427    1.0000 </r>
       <r>   -1.4697    1.0000 </r>
       <r>   -1.4697    1.0000 </r>
       <r>   -0.3411    1.0000 </r>
       <r>   -0.3411    1.0000 </r>
       <r>    7.5549    0.0000 </r>
       <r>    7.5549    0.0000 </r>
       <r>    9.2877    0.0000 </r>
       <r>    9.2877    0.0000 </r>
       <r>   10.0789    0.0000 </r>
       <r>   10.0789    0.0000 </r>
       <r>   15.2947    0.0000 </r>
       <r>   15.2947    0.0000 </r>
       <r>   17.0937    0.0000 </r>
       <r>   17.0937    0.0000 </r>
       <r>   20.3455    0.0000 </r>
       <r>   20.3455    0.0000 </r>
       <r>   23.7266    0.0000 </r>
       <r>   23.7266    0.0000 </r>
       <r>   25.8940    0.0000 </r>
       <r>   25.8940    0.0000 </r>
       <r>   28.0949    0.0000 </r>
       <r>   28.0949    0.0000 </r>
       <r>   31.0807    0.0000 </r>
       <r>   31.0807    0.0000 </r>
       <r>   32.1480    0.0000 </r>
       <r>   32.1480    0.0000 </r>
      </set>
      <set comment="kpoint 64">
       <r>  -16.1531    1.0000 </r>
       <r>  -16.1531    1.0000 </r>
       <r>   -4.6997    1.0000 </r>
       <r>   -4.6997    1.0000 </r>
       <r>   -4.4189    1.0000 </r>
       <r>   -4.4189    1.0000 </r>
       <r>   -3.9973    1.0000 </r>
       <r>   -3.9973    1.0000 </r>
       <r>   -3.5807    1.0000 </r>
       <r>   -3.5807    1.0000 </r>
       <r>   -3.1582    1.0000 </r>
       <r>   -3.1582    1.0000 </r>
       <r>   -2.7796    1.0000 </r>
       <r>   -2.7796    1.0000 </r>
       <r>   -1.6587    1.0000 </r>
       <r>   -1.6587    1.0000 </r>
       <r>   -0.3266    1.0000 </r>
       <r>   -0.3266    1.0000 </r>
       <r>    8.1238    0.0000 </r>
       <r>    8.1238    0.0000 </r>
       <r>    9.0286    0.0000 </r>
       <r>    9.0286    0.0000 </r>
       <r>    9.6615    0.0000 </r>
       <r>    9.6615    0.0000 </r>
       <r>   15.8563    0.0000 </r>
       <r>   15.8563    0.0000 </r>
       <r>   16.7368    0.0000 </r>
       <r>   16.7368    0.0000 </r>
       <r>   20.1227    0.0000 </r>
       <r>   20.1227    0.0000 </r>
       <r>   23.8277    0.0000 </r>
       <r>   23.8277    0.0000 </r>
       <r>   26.2469    0.0000 </r>
       <r>   26.2469    0.0000 </r>
       <r>   27.7939    0.0000 </r>
       <r>   27.7939    0.0000 </r>
       <r>   31.1146    0.0000 </r>
       <r>   31.1146    0.0000 </r>
       <r>   32.6186    0.0000 </r>
       <r>   32.6186    0.0000 </r>
      </set>
     </set>
    </set>
   </array>
  </eigenvalues>
  <separator name="orbital magnetization" >
   <v name="MAGDIPOLOUT">      0.00000000      0.00000000      0.00000000</v>
  </separator>
  <dos>
   <i name="efermi">      1.10946221 </i>
   <total>
    <array>
     <dimension dim="1">gridpoints</dimension>
     <dimension dim="2">spin</dimension>
     <field>energy</field>
     <field>total</field>
     <field>integrated</field>
     <set>
      <set comment="spin 1">
       <r>   -19.5916     0.0000     0.0000 </r>
       <r>   -19.3965     0.0000     0.0000 </r>
       <r>   -19.2014     0.0000     0.0000 </r>
       <r>   -19.0064     0.0000     0.0000 </r>
       <r>   -18.8113     0.0000     0.0000 </r>
       <r>   -18.6163     0.0000     0.0000 </r>
       <r>   -18.4212     0.0000     0.0000 </r>
       <r>   -18.2261     0.0000     0.0000 </r>
       <r>   -18.0311     0.0000     0.0000 </r>
       <r>   -17.8360     0.0000     0.0000 </r>
       <r>   -17.6409     0.0000     0.0000 </r>
       <r>   -17.4459     0.0000     0.0000 </r>
       <r>   -17.2508     0.0000     0.0000 </r>
       <r>   -17.0558     0.0000     0.0000 </r>
       <r>   -16.8607     0.1752     0.0342 </r>
       <r>   -16.6656     1.1193     0.2525 </r>
       <r>   -16.4706     2.4150     0.7236 </r>
       <r>   -16.2755     5.5522     1.8066 </r>
       <r>   -16.0804    10.6383     3.8818 </r>
       <r>   -15.8854     0.6062     4.0000 </r>
       <r>   -15.6903     0.0000     4.0000 </r>
       <r>   -15.4952     0.0000     4.0000 </r>
       <r>   -15.3002     0.0000     4.0000 </r>
       <r>   -15.1051     0.0000     4.0000 </r>
       <r>   -14.9101     0.0000     4.0000 </r>
       <r>   -14.7150     0.0000     4.0000 </r>
       <r>   -14.5199     0.0000     4.0000 </r>
       <r>   -14.3249     0.0000     4.0000 </r>
       <r>   -14.1298     0.0000     4.0000 </r>
       <r>   -13.9347     0.0000     4.0000 </r>
       <r>   -13.7397     0.0000     4.0000 </r>
       <r>   -13.5446     0.0000     4.0000 </r>
       <r>   -13.3496     0.0000     4.0000 </r>
       <r>   -13.1545     0.0000     4.0000 </r>
       <r>   -12.9594     0.0000     4.0000 </r>
       <r>   -12.7644     0.0000     4.0000 </r>
       <r>   -12.5693     0.0000     4.0000 </r>
       <r>   -12.3742     0.0000     4.0000 </r>
       <r>   -12.1792     0.0000     4.0000 </r>
       <r>   -11.9841     0.0000     4.0000 </r>
       <r>   -11.7891     0.0000     4.0000 </r>
       <r>   -11.5940     0.0000     4.0000 </r>
       <r>   -11.3989     0.0000     4.0000 </r>
       <r>   -11.2039     0.0000     4.0000 </r>
       <r>   -11.0088     0.0000     4.0000 </r>
       <r>   -10.8137     0.0000     4.0000 </r>
       <r>   -10.6187     0.0000     4.0000 </r>
       <r>   -10.4236     0.0000     4.0000 </r>
       <r>   -10.2286     0.0000     4.0000 </r>
       <r>   -10.0335     0.0000     4.0000 </r>
       <r>    -9.8384     0.0000     4.0000 </r>
       <r>    -9.6434     0.0000     4.0000 </r>
       <r>    -9.4483     0.0000     4.0000 </r>
       <r>    -9.2532     0.0000     4.0000 </r>
       <r>    -9.0582     0.0000     4.0000 </r>
       <r>    -8.8631     0.0000     4.0000 </r>
       <r>    -8.6681     0.0000     4.0000 </r>
       <r>    -8.4730     0.0000     4.0000 </r>
       <r>    -8.2779     0.0000     4.0000 </r>
       <r>    -8.0829     0.0000     4.0000 </r>
       <r>    -7.8878     0.0000     4.0000 </r>
       <r>    -7.6927     0.0000     4.0000 </r>
       <r>    -7.4977     0.0000     4.0000 </r>
       <r>    -7.3026     0.0000     4.0000 </r>
       <r>    -7.1076     0.0000     4.0000 </r>
       <r>    -6.9125     0.0000     4.0000 </r>
       <r>    -6.7174     0.0000     4.0000 </r>
       <r>    -6.5224     0.0000     4.0000 </r>
       <r>    -6.3273     0.0000     4.0000 </r>
       <r>    -6.1322     0.0000     4.0000 </r>
       <r>    -5.9372     0.0000     4.0000 </r>
       <r>    -5.7421     0.0000     4.0000 </r>
       <r>    -5.5471     0.0000     4.0000 </r>
       <r>    -5.3520     0.0000     4.0000 </r>
       <r>    -5.1569     0.0000     4.0000 </r>
       <r>    -4.9619     2.2463     4.4382 </r>
       <r>    -4.7668    10.4400     6.4746 </r>
       <r>    -4.5717     8.4216     8.1174 </r>
       <r>    -4.3767    14.7216    10.9890 </r>
       <r>    -4.1816    12.3443    13.3969 </r>
       <r>    -3.9866    10.1456    15.3759 </r>
       <r>    -3.7915     3.0797    15.9767 </r>
       <r>    -3.5964     6.2088    17.1878 </r>
       <r>    -3.4014    21.4998    21.3816 </r>
       <r>    -3.2063    11.8070    23.6847 </r>
       <r>    -3.0112     2.1500    24.1041 </r>
       <r>    -2.8162     3.3415    24.7559 </r>
       <r>    -2.6211     4.3306    25.6006 </r>
       <r>    -2.4260     3.0229    26.1903 </r>
       <r>    -2.2310     1.9948    26.5794 </r>
       <r>    -2.0359     3.2167    27.2069 </r>
       <r>    -1.8409     1.5063    27.5007 </r>
       <r>    -1.6458     1.8432    27.8602 </r>
       <r>    -1.4507     3.0107    28.4475 </r>
       <r>    -1.2557     3.1985    29.0714 </r>
       <r>    -1.0606     2.4666    29.5525 </r>
       <r>    -0.8655     4.5032    30.4309 </r>
       <r>    -0.6705     2.5246    30.9234 </r>
       <r>    -0.4754     3.8750    31.6792 </r>
       <r>    -0.2804     5.9808    32.8459 </r>
       <r>    -0.0853     5.0449    33.8300 </r>
       <r>     0.1098     4.2998    34.6687 </r>
       <r>     0.3048     2.9925    35.2524 </r>
       <r>     0.4999     2.1313    35.6681 </r>
       <r>     0.6950     1.3312    35.9278 </r>
       <r>     0.8900     0.3692    35.9998 </r>
       <r>     1.0851     0.0008    36.0000 </r>
       <r>     1.2801     0.0000    36.0000 </r>
       <r>     1.4752     0.0003    36.0001 </r>
       <r>     1.6703     0.0138    36.0028 </r>
       <r>     1.8653     0.0000    36.0028 </r>
       <r>     2.0604     0.0000    36.0028 </r>
       <r>     2.2555     0.1069    36.0236 </r>
       <r>     2.4505     0.0061    36.0248 </r>
       <r>     2.6456     0.1448    36.0530 </r>
       <r>     2.8406     0.0255    36.0580 </r>
       <r>     3.0357     0.0838    36.0744 </r>
       <r>     3.2308     0.2269    36.1186 </r>
       <r>     3.4258     0.1325    36.1445 </r>
       <r>     3.6209     0.2621    36.1956 </r>
       <r>     3.8160     0.0009    36.1958 </r>
       <r>     4.0110     0.3410    36.2623 </r>
       <r>     4.2061     0.5342    36.3665 </r>
       <r>     4.4011     0.2111    36.4077 </r>
       <r>     4.5962     0.2578    36.4580 </r>
       <r>     4.7913     0.3085    36.5181 </r>
       <r>     4.9863     0.6140    36.6379 </r>
       <r>     5.1814     0.6698    36.7686 </r>
       <r>     5.3765     0.4740    36.8610 </r>
       <r>     5.5715     0.8637    37.0295 </r>
       <r>     5.7666     0.4077    37.1090 </r>
       <r>     5.9616     0.4757    37.2018 </r>
       <r>     6.1567     2.2000    37.6309 </r>
       <r>     6.3518     0.6855    37.7646 </r>
       <r>     6.5468     1.2627    38.0109 </r>
       <r>     6.7419     0.7637    38.1599 </r>
       <r>     6.9370     1.1723    38.3886 </r>
       <r>     7.1320     1.1536    38.6136 </r>
       <r>     7.3271     1.3496    38.8769 </r>
       <r>     7.5221     0.5823    38.9905 </r>
       <r>     7.7172     0.8229    39.1510 </r>
       <r>     7.9123     1.7412    39.4906 </r>
       <r>     8.1073     0.4620    39.5807 </r>
       <r>     8.3024     1.0036    39.7765 </r>
       <r>     8.4975     1.5491    40.0787 </r>
       <r>     8.6925     0.9288    40.2598 </r>
       <r>     8.8876     1.4149    40.5358 </r>
       <r>     9.0826     3.3376    41.1869 </r>
       <r>     9.2777     5.4817    42.2562 </r>
       <r>     9.4728     2.2675    42.6985 </r>
       <r>     9.6678     1.6023    43.0110 </r>
       <r>     9.8629     1.3469    43.2737 </r>
       <r>    10.0580     0.7143    43.4131 </r>
       <r>    10.2530     0.9582    43.6000 </r>
       <r>    10.4481     0.2796    43.6545 </r>
       <r>    10.6432     1.6588    43.9781 </r>
       <r>    10.8382     0.6429    44.1035 </r>
       <r>    11.0333     1.0743    44.3130 </r>
       <r>    11.2283     1.4558    44.5970 </r>
       <r>    11.4234     2.1076    45.0081 </r>
       <r>    11.6185     2.1489    45.4273 </r>
       <r>    11.8135     1.3713    45.6948 </r>
       <r>    12.0086     1.4785    45.9832 </r>
       <r>    12.2037     1.7497    46.3245 </r>
       <r>    12.3987     1.2784    46.5739 </r>
       <r>    12.5938     1.4354    46.8539 </r>
       <r>    12.7888     1.2367    47.0951 </r>
       <r>    12.9839     2.4279    47.5687 </r>
       <r>    13.1790     1.2409    47.8107 </r>
       <r>    13.3740     1.5015    48.1036 </r>
       <r>    13.5691     1.8643    48.4673 </r>
       <r>    13.7642     2.3670    48.9290 </r>
       <r>    13.9592     2.1794    49.3541 </r>
       <r>    14.1543     2.3616    49.8148 </r>
       <r>    14.3493     1.6736    50.1412 </r>
       <r>    14.5444     2.3592    50.6014 </r>
       <r>    14.7395     2.7301    51.1340 </r>
       <r>    14.9345     0.8557    51.3009 </r>
       <r>    15.1296     1.7360    51.6395 </r>
       <r>    15.3247     0.7544    51.7867 </r>
       <r>    15.5197     1.0342    51.9884 </r>
       <r>    15.7148     0.7665    52.1379 </r>
       <r>    15.9098     0.5575    52.2467 </r>
       <r>    16.1049     2.0572    52.6479 </r>
       <r>    16.3000     2.0872    53.0551 </r>
       <r>    16.4950     1.1968    53.2885 </r>
       <r>    16.6901     0.4579    53.3778 </r>
       <r>    16.8852     0.8291    53.5396 </r>
       <r>    17.0802     1.2387    53.7812 </r>
       <r>    17.2753     0.9340    53.9634 </r>
       <r>    17.4703     0.9066    54.1402 </r>
       <r>    17.6654     0.5100    54.2397 </r>
       <r>    17.8605     0.1502    54.2690 </r>
       <r>    18.0555     0.8335    54.4316 </r>
       <r>    18.2506     1.6300    54.7496 </r>
       <r>    18.4457     2.5015    55.2375 </r>
       <r>    18.6407     0.6422    55.3628 </r>
       <r>    18.8358     0.3982    55.4405 </r>
       <r>    19.0308     1.3219    55.6983 </r>
       <r>    19.2259     0.9804    55.8895 </r>
       <r>    19.4210     0.7446    56.0348 </r>
       <r>    19.6160     0.4632    56.1251 </r>
       <r>    19.8111     0.4076    56.2047 </r>
       <r>    20.0062     0.6062    56.3229 </r>
       <r>    20.2012     2.4497    56.8008 </r>
       <r>    20.3963     2.1955    57.2290 </r>
       <r>    20.5913     1.3764    57.4975 </r>
       <r>    20.7864     1.4039    57.7713 </r>
       <r>    20.9815     1.3687    58.0383 </r>
       <r>    21.1765     2.3852    58.5036 </r>
       <r>    21.3716     0.5188    58.6048 </r>
       <r>    21.5667     1.2094    58.8407 </r>
       <r>    21.7617     1.8699    59.2054 </r>
       <r>    21.9568     2.3150    59.6570 </r>
       <r>    22.1518     2.0306    60.0531 </r>
       <r>    22.3469     1.2357    60.2941 </r>
       <r>    22.5420     2.2992    60.7426 </r>
       <r>    22.7370     1.9260    61.1183 </r>
       <r>    22.9321     2.1303    61.5338 </r>
       <r>    23.1272     1.3824    61.8035 </r>
       <r>    23.3222     2.3317    62.2583 </r>
       <r>    23.5173     2.1246    62.6727 </r>
       <r>    23.7124     2.0760    63.0777 </r>
       <r>    23.9074     2.6073    63.5863 </r>
       <r>    24.1025     1.0661    63.7942 </r>
       <r>    24.2975     1.9534    64.1753 </r>
       <r>    24.4926     0.6674    64.3055 </r>
       <r>    24.6877     0.4030    64.3841 </r>
       <r>    24.8827     1.1381    64.6061 </r>
       <r>    25.0778     2.6057    65.1144 </r>
       <r>    25.2729     1.1197    65.3328 </r>
       <r>    25.4679     2.0568    65.7340 </r>
       <r>    25.6630     1.7349    66.0724 </r>
       <r>    25.8580     2.6435    66.5880 </r>
       <r>    26.0531     2.2994    67.0366 </r>
       <r>    26.2482     2.4401    67.5125 </r>
       <r>    26.4432     3.5882    68.2125 </r>
       <r>    26.6383     2.6256    68.7246 </r>
       <r>    26.8334     1.8242    69.0804 </r>
       <r>    27.0284     2.1683    69.5034 </r>
       <r>    27.2235     2.8589    70.0611 </r>
       <r>    27.4185     3.1855    70.6824 </r>
       <r>    27.6136     2.7138    71.2118 </r>
       <r>    27.8087     1.9943    71.6008 </r>
       <r>    28.0037     2.9215    72.1707 </r>
       <r>    28.1988     2.1098    72.5822 </r>
       <r>    28.3939     3.2601    73.2182 </r>
       <r>    28.5889     2.1451    73.6366 </r>
       <r>    28.7840     2.8416    74.1909 </r>
       <r>    28.9790     2.3408    74.6475 </r>
       <r>    29.1741     1.6680    74.9728 </r>
       <r>    29.3692     2.0285    75.3685 </r>
       <r>    29.5642     2.2082    75.7993 </r>
       <r>    29.7593     2.7626    76.3382 </r>
       <r>    29.9544     1.8494    76.6989 </r>
       <r>    30.1494     1.9959    77.0882 </r>
       <r>    30.3445     1.5929    77.3990 </r>
       <r>    30.5395     1.9075    77.7710 </r>
       <r>    30.7346     1.1178    77.9891 </r>
       <r>    30.9297     1.7732    78.3350 </r>
       <r>    31.1247     0.5306    78.4385 </r>
       <r>    31.3198     1.9764    78.8240 </r>
       <r>    31.5149     1.6259    79.1411 </r>
       <r>    31.7099     0.7047    79.2786 </r>
       <r>    31.9050     0.6872    79.4126 </r>
       <r>    32.1000     0.6529    79.5400 </r>
       <r>    32.2951     0.7247    79.6814 </r>
       <r>    32.4902     0.3963    79.7587 </r>
       <r>    32.6852     0.4252    79.8416 </r>
       <r>    32.8803     0.2693    79.8941 </r>
       <r>    33.0754     0.5264    79.9968 </r>
       <r>    33.2704     0.0163    80.0000 </r>
       <r>    33.4655     0.0000    80.0000 </r>
       <r>    33.6605     0.0000    80.0000 </r>
       <r>    33.8556     0.0000    80.0000 </r>
       <r>    34.0507     0.0000    80.0000 </r>
       <r>    34.2457     0.0000    80.0000 </r>
       <r>    34.4408     0.0000    80.0000 </r>
       <r>    34.6359     0.0000    80.0000 </r>
       <r>    34.8309     0.0000    80.0000 </r>
       <r>    35.0260     0.0000    80.0000 </r>
       <r>    35.2210     0.0000    80.0000 </r>
       <r>    35.4161     0.0000    80.0000 </r>
       <r>    35.6112     0.0000    80.0000 </r>
       <r>    35.8062     0.0000    80.0000 </r>
       <r>    36.0013     0.0000    80.0000 </r>
       <r>    36.1964     0.0000    80.0000 </r>
       <r>    36.3914     0.0000    80.0000 </r>
       <r>    36.5865     0.0000    80.0000 </r>
       <r>    36.7816     0.0000    80.0000 </r>
       <r>    36.9766     0.0000    80.0000 </r>
       <r>    37.1717     0.0000    80.0000 </r>
       <r>    37.3667     0.0000    80.0000 </r>
       <r>    37.5618     0.0000    80.0000 </r>
       <r>    37.7569     0.0000    80.0000 </r>
       <r>    37.9519     0.0000    80.0000 </r>
       <r>    38.1470     0.0000    80.0000 </r>
       <r>    38.3421     0.0000    80.0000 </r>
       <r>    38.5371     0.0000    80.0000 </r>
       <r>    38.7322     0.0000    80.0000 </r>
       <r>    38.9272     0.0000    80.0000 </r>
      </set>
     </set>
    </array>
   </total>
  </dos>
 </calculation>
 <structure name="finalpos" >
  <crystal>
   <varray name="basis" >
    <v>       2.85360405      -1.64752907       0.00000000 </v>
    <v>       0.00000000       3.29505813       0.00000000 </v>
    <v>       0.00000000       0.00000000       5.28482419 </v>
   </varray>
   <i name="volume">     49.69209855 </i>
   <varray name="rec_basis" >
    <v>       0.35043404       0.00000000       0.00000000 </v>
    <v>       0.17521702       0.30348478      -0.00000000 </v>
    <v>      -0.00000000       0.00000000       0.18922105 </v>
   </varray>
  </crystal>
  <varray name="positions" >
   <v>       0.33333333       0.66666667       0.00090035 </v>
   <v>       0.66666667       0.33333333       0.50090035 </v>
   <v>       0.33333333       0.66666667       0.38159965 </v>
   <v>       0.66666667       0.33333333       0.88159965 </v>
  </varray>
 </structure>
</modeling>
