natom:    4
displacements:
- atom:    1
  direction:
    [   1.0000000000000000,  0.0000000000000000,  1.0000000000000000 ]
  displacement:
    [   0.0045819661704497, -0.0026453994019269,  0.0084857202415080 ]
- atom:    1
  direction:
    [  -1.0000000000000000,  0.0000000000000000, -1.0000000000000000 ]
  displacement:
    [  -0.0045819661704497,  0.0026453994019269, -0.0084857202415080 ]
- atom:    3
  direction:
    [   1.0000000000000000,  0.0000000000000000,  1.0000000000000000 ]
  displacement:
    [   0.0045819661704497, -0.0026453994019269,  0.0084857202415080 ]
- atom:    3
  direction:
    [  -1.0000000000000000,  0.0000000000000000, -1.0000000000000000 ]
  displacement:
    [  -0.0045819661704497,  0.0026453994019269, -0.0084857202415080 ]
lattice:
- [     2.853604050144091,    -1.647529066511296,     0.000000000000000 ] # a
- [     0.000000000000000,     3.295058133022593,     0.000000000000000 ] # b
- [     0.000000000000000,     0.000000000000000,     5.284824188734725 ] # c
points:
- symbol: Zn # 1
  coordinates: [  0.333333333333336,  0.666666666666664,  0.000900350027260 ]
  mass: 65.380000
- symbol: Zn # 2
  coordinates: [  0.666666666666664,  0.333333333333336,  0.500900350027260 ]
  mass: 65.380000
- symbol: O  # 3
  coordinates: [  0.333333333333336,  0.666666666666664,  0.381599649972740 ]
  mass: 15.999400
- symbol: O  # 4
  coordinates: [  0.666666666666664,  0.333333333333336,  0.881599649972740 ]
  mass: 15.999400