4    
4    

1    
  0.0045819661704497  -0.0026453994019269   0.0084857202415080
  -0.0303844800    0.0180831400   -0.0880940000
   0.0012771100   -0.0007725700    0.0419435300
   0.0004664200   -0.0002766900    0.0353765500
   0.0286409500   -0.0170338800    0.0107739300

1    
 -0.0045819661704497   0.0026453994019269  -0.0084857202415080
   0.0323592400   -0.0180892900    0.0902311300
  -0.0013199200    0.0007193500   -0.0372653700
  -0.0007019600    0.0003889800   -0.0373492100
  -0.0303373600    0.0169809700   -0.0156165600

3    
  0.0045819661704497  -0.0026453994019269   0.0084857202415080
   0.0006506800   -0.0003783600    0.0371451500
   0.0298440100   -0.0177362700    0.0153787400
  -0.0344047600    0.0203857400   -0.0896704000
   0.0039100600   -0.0022711100    0.0371465000

3    
 -0.0045819661704497   0.0026453994019269  -0.0084857202415080
  -0.0004024600    0.0002306300   -0.0352040500
  -0.0289971100    0.0162641800   -0.0106130500
   0.0333571600   -0.0187671500    0.0876777100
  -0.0039575900    0.0022723400   -0.0418606100
