 vasp.5.4.4.18Apr17-6-g9f103f2a35 (build May 26 2017 11:30:53) complex           
 executed on       LinuxGNU_weber date 2017.05.30  12:04:58
 running on    4 total cores
 distrk:  each k-point on    4 cores,    1 groups
 distr:  one band on NCORES_PER_BAND=   1 cores,    4 groups


--------------------------------------------------------------------------------------------------------


 INCAR:
 POTCAR:    PAW_PBE Zn 06Sep2000                  
 POTCAR:    PAW_PBE O 08Apr2002                   
 POTCAR:    PAW_PBE Zn 06Sep2000                  
   VRHFIN =Zn: d10 p2                                                           
   LEXCH  = PE                                                                  
   EATOM  =  1748.8345 eV,  128.5357 Ry                                         
                                                                                
   TITEL  = PAW_PBE Zn 06Sep2000                                                
   LULTRA =        F    use ultrasoft PP ?                                      
   IUNSCR =        1    unscreen: 0-lin 1-nonlin 2-no                           
   RPACOR =    2.000    partial core radius                                     
   POMASS =   65.390; ZVAL   =   12.000    mass and valenz                      
   RCORE  =    2.300    outmost cutoff radius                                   
   RWIGS  =    2.400; RWIGS  =    1.270    wigner-seitz radius (au A)           
   ENMAX  =  276.723; ENMIN  =  207.542 eV                                      
   RCLOC  =    1.828    cutoff for local pot                                    
   LCOR   =        T    correct aug charges                                     
   LPAW   =        T    paw PP                                                  
   EAUG   =  575.892                                                            
   DEXC   =    0.000                                                            
   RMAX   =    2.347    core radius for proj-oper                               
   RAUG   =    1.300    factor for augmentation sphere                          
   RDEP   =    2.324    radius for radial grids                                 
   RDEPT  =    1.788    core radius for aug-charge                              
                                                                                
   Atomic configuration                                                         
    9 entries                                                                   
     n  l   j            E        occ.                                          
     1  0  0.50     -9524.6913   2.0000                                         
     2  0  0.50     -1158.1882   2.0000                                         
     2  1  1.50     -1003.8506   6.0000                                         
     3  0  0.50      -129.2194   2.0000                                         
     3  1  1.50       -83.3890   6.0000                                         
     3  2  2.50       -10.1410  10.0000                                         
     4  0  0.50        -5.9785   2.0000                                         
     4  1  0.50        -4.0817   0.0000                                         
     4  3  2.50        -1.3606   0.0000                                         
   Description                                                                  
     l       E           TYP  RCUT    TYP  RCUT                                 
     2    -10.1410010     23  2.300                                             
     2    -11.5015836     23  2.300                                             
     0     -5.9785163     23  2.300                                             
     0      1.1858015     23  2.300                                             
     1     -2.7211652     23  2.300                                             
     1     13.2444212     23  2.300                                             
  local pseudopotential read in
  partial core-charges read in
  partial kinetic energy density read in
  atomic valenz-charges read in
  non local Contribution for L=           2  read in
    real space projection operators read in
  non local Contribution for L=           2  read in
    real space projection operators read in
  non local Contribution for L=           0  read in
    real space projection operators read in
  non local Contribution for L=           0  read in
    real space projection operators read in
  non local Contribution for L=           1  read in
    real space projection operators read in
  non local Contribution for L=           1  read in
    real space projection operators read in
    PAW grid and wavefunctions read in

   number of l-projection  operators is LMAX  =           6
   number of lm-projection operators is LMMAX =          18

 POTCAR:    PAW_PBE O 08Apr2002                   
   VRHFIN =O: s2p4                                                              
   LEXCH  = PE                                                                  
   EATOM  =   432.3788 eV,   31.7789 Ry                                         
                                                                                
   TITEL  = PAW_PBE O 08Apr2002                                                 
   LULTRA =        F    use ultrasoft PP ?                                      
   IUNSCR =        1    unscreen: 0-lin 1-nonlin 2-no                           
   RPACOR =    1.200    partial core radius                                     
   POMASS =   16.000; ZVAL   =    6.000    mass and valenz                      
   RCORE  =    1.520    outmost cutoff radius                                   
   RWIGS  =    1.550; RWIGS  =    0.820    wigner-seitz radius (au A)           
   ENMAX  =  400.000; ENMIN  =  300.000 eV                                      
   ICORE  =        2    local potential                                         
   LCOR   =        T    correct aug charges                                     
   LPAW   =        T    paw PP                                                  
   EAUG   =  605.392                                                            
   DEXC   =    0.000                                                            
   RMAX   =    1.553    core radius for proj-oper                               
   RAUG   =    1.300    factor for augmentation sphere                          
   RDEP   =    1.550    radius for radial grids                                 
   RDEPT  =    1.329    core radius for aug-charge                              
                                                                                
   Atomic configuration                                                         
    4 entries                                                                   
     n  l   j            E        occ.                                          
     1  0  0.50      -514.6923   2.0000                                         
     2  0  0.50       -23.9615   2.0000                                         
     2  1  0.50        -9.0305   4.0000                                         
     3  2  1.50        -9.5241   0.0000                                         
   Description                                                                  
     l       E           TYP  RCUT    TYP  RCUT                                 
     0    -23.9615318     23  1.200                                             
     0     -9.5240782     23  1.200                                             
     1     -9.0304911     23  1.520                                             
     1      8.1634956     23  1.520                                             
     2     -9.5240782      7  1.500                                             
  local pseudopotential read in
  partial core-charges read in
  partial kinetic energy density read in
  kinetic energy density of atom read in
  atomic valenz-charges read in
  non local Contribution for L=           0  read in
    real space projection operators read in
  non local Contribution for L=           0  read in
    real space projection operators read in
  non local Contribution for L=           1  read in
    real space projection operators read in
  non local Contribution for L=           1  read in
    real space projection operators read in
    PAW grid and wavefunctions read in

   number of l-projection  operators is LMAX  =           4
   number of lm-projection operators is LMMAX =           8

  PAW_PBE Zn 06Sep2000                  :
 energy of atom  1       EATOM=-1748.8345
 kinetic energy error for atom=    0.0020 (will be added to EATOM!!)
  PAW_PBE O 08Apr2002                   :
 energy of atom  2       EATOM= -432.3788
 kinetic energy error for atom=    0.0168 (will be added to EATOM!!)


 POSCAR: Zn O                                    
  positions in direct lattice
  No initial velocities read in
 exchange correlation table for  LEXCH =        8
   RHO(1)=    0.500       N(1)  =     2000
   RHO(2)=  100.500       N(2)  =     4000



--------------------------------------------------------------------------------------------------------


 ion  position               nearest neighbor table
   1  0.333  0.667  0.001-   4 2.00   4 2.00   4 2.00   3 2.01
   2  0.667  0.333  0.501-   3 2.00   3 2.00   3 2.00   4 2.01
   3  0.333  0.667  0.382-   2 2.00   2 2.00   2 2.00   1 2.01
   4  0.667  0.333  0.882-   1 2.00   1 2.00   1 2.00   2 2.01

  LATTYP: Found a hexagonal cell.
 ALAT       =     3.2950581330
 C/A-ratio  =     1.6038637181
  
  Lattice vectors:
  
 A1 = (   2.8536040501,  -1.6475290665,   0.0000000000)
 A2 = (   0.0000000000,   3.2950581330,   0.0000000000)
 A3 = (   0.0000000000,   0.0000000000,   5.2848241887)


Analysis of symmetry for initial positions (statically):
=====================================================================
 Subroutine PRICEL returns:
 Original cell was already a primitive cell.
 

 Routine SETGRP: Setting up the symmetry group for a 
 hexagonal supercell.


 Subroutine GETGRP returns: Found 12 space group operations
 (whereof  6 operations were pure point group operations)
 out of a pool of 24 trial point group operations.


The static configuration has the point symmetry C_3v.
 The point group associated with its full space group is C_6v.


Analysis of symmetry for dynamics (positions and initial velocities):
=====================================================================
 Subroutine PRICEL returns:
 Original cell was already a primitive cell.
 

 Routine SETGRP: Setting up the symmetry group for a 
 hexagonal supercell.


 Subroutine GETGRP returns: Found 12 space group operations
 (whereof  6 operations were pure point group operations)
 out of a pool of 24 trial point group operations.


The dynamic configuration has the point symmetry C_3v.
 The point group associated with its full space group is C_6v.


 Subroutine INISYM returns: Found 12 space group operations
 (whereof  6 operations are pure point group operations),
 and found     1 'primitive' translations



 KPOINTS: Generated by cif2cell 1.1.0. k-space res

Automatic generation of k-mesh.
Space group operators:
 irot       det(A)        alpha          n_x          n_y          n_z        tau_x        tau_y        tau_z
    1     1.000000     0.000000     1.000000     0.000000     0.000000     0.000000     0.000000     0.000000
    2     1.000000   120.000000     0.000000     0.000000    -1.000000     0.000000     0.000000     0.000000
    3     1.000000   120.000000     0.000000     0.000000     1.000000     0.000000     0.000000     0.000000
    4    -1.000000   180.000000     0.866025    -0.500000     0.000000     0.000000     0.000000     0.000000
    5    -1.000000   180.000000     0.000000     1.000000     0.000000     0.000000     0.000000     0.000000
    6    -1.000000   180.000000     0.866025     0.500000     0.000000     0.000000     0.000000     0.000000
    7     1.000000    60.000000     0.000000     0.000000    -1.000000     0.000000     0.000000     0.500000
    8     1.000000   179.999999     0.000000     0.000000     1.000000     0.000000     0.000000     0.500000
    9     1.000000    60.000000     0.000000     0.000000     1.000000     0.000000     0.000000     0.500000
   10    -1.000000   180.000000     0.500000    -0.866025     0.000000     0.000000     0.000000     0.500000
   11    -1.000000   180.000000    -0.500000    -0.866025     0.000000     0.000000     0.000000     0.500000
   12    -1.000000   180.000000     1.000000     0.000000     0.000000     0.000000     0.000000     0.500000
 
 Subroutine IBZKPT returns following result:
 ===========================================
 
 Found     64 irreducible k-points:
 
 Following reciprocal coordinates:
            Coordinates               Weight
  0.000000  0.000000  0.000000      1.000000
  0.090909  0.000000  0.000000      6.000000
  0.181818  0.000000  0.000000      6.000000
  0.272727  0.000000  0.000000      6.000000
  0.363636  0.000000  0.000000      6.000000
  0.454545  0.000000  0.000000      6.000000
  0.090909  0.090909  0.000000      6.000000
  0.181818  0.090909  0.000000     12.000000
  0.272727  0.090909  0.000000     12.000000
  0.363636  0.090909  0.000000     12.000000
  0.454545  0.090909  0.000000      6.000000
  0.181818  0.181818  0.000000      6.000000
  0.272727  0.181818  0.000000     12.000000
  0.363636  0.181818  0.000000     12.000000
  0.272727  0.272727  0.000000      6.000000
  0.363636  0.272727  0.000000      6.000000
  0.000000  0.000000  0.166667      2.000000
  0.090909  0.000000  0.166667     12.000000
  0.181818  0.000000  0.166667     12.000000
  0.272727  0.000000  0.166667     12.000000
  0.363636  0.000000  0.166667     12.000000
  0.454545  0.000000  0.166667     12.000000
  0.090909  0.090909  0.166667     12.000000
  0.181818  0.090909  0.166667     24.000000
  0.272727  0.090909  0.166667     24.000000
  0.363636  0.090909  0.166667     24.000000
  0.454545  0.090909  0.166667     12.000000
  0.181818  0.181818  0.166667     12.000000
  0.272727  0.181818  0.166667     24.000000
  0.363636  0.181818  0.166667     24.000000
  0.272727  0.272727  0.166667     12.000000
  0.363636  0.272727  0.166667     12.000000
  0.000000  0.000000  0.333333      2.000000
  0.090909  0.000000  0.333333     12.000000
  0.181818  0.000000  0.333333     12.000000
  0.272727  0.000000  0.333333     12.000000
  0.363636  0.000000  0.333333     12.000000
  0.454545  0.000000  0.333333     12.000000
  0.090909  0.090909  0.333333     12.000000
  0.181818  0.090909  0.333333     24.000000
  0.272727  0.090909  0.333333     24.000000
  0.363636  0.090909  0.333333     24.000000
  0.454545  0.090909  0.333333     12.000000
  0.181818  0.181818  0.333333     12.000000
  0.272727  0.181818  0.333333     24.000000
  0.363636  0.181818  0.333333     24.000000
  0.272727  0.272727  0.333333     12.000000
  0.363636  0.272727  0.333333     12.000000
  0.000000  0.000000  0.500000      1.000000
  0.090909  0.000000  0.500000      6.000000
  0.181818  0.000000  0.500000      6.000000
  0.272727  0.000000  0.500000      6.000000
  0.363636  0.000000  0.500000      6.000000
  0.454545  0.000000  0.500000      6.000000
  0.090909  0.090909  0.500000      6.000000
  0.181818  0.090909  0.500000     12.000000
  0.272727  0.090909  0.500000     12.000000
  0.363636  0.090909  0.500000     12.000000
  0.454545  0.090909  0.500000      6.000000
  0.181818  0.181818  0.500000      6.000000
  0.272727  0.181818  0.500000     12.000000
  0.363636  0.181818  0.500000     12.000000
  0.272727  0.272727  0.500000      6.000000
  0.363636  0.272727  0.500000      6.000000
 
 Following cartesian coordinates:
            Coordinates               Weight
  0.000000  0.000000  0.000000      1.000000
  0.031858  0.000000  0.000000      6.000000
  0.063715  0.000000  0.000000      6.000000
  0.095573  0.000000  0.000000      6.000000
  0.127431  0.000000  0.000000      6.000000
  0.159288  0.000000  0.000000      6.000000
  0.047786  0.027590  0.000000      6.000000
  0.079644  0.027590  0.000000     12.000000
  0.111502  0.027590  0.000000     12.000000
  0.143359  0.027590  0.000000     12.000000
  0.175217  0.027590  0.000000      6.000000
  0.095573  0.055179  0.000000      6.000000
  0.127431  0.055179  0.000000     12.000000
  0.159288  0.055179  0.000000     12.000000
  0.143359  0.082769  0.000000      6.000000
  0.175217  0.082769  0.000000      6.000000
  0.000000  0.000000  0.031537      2.000000
  0.031858  0.000000  0.031537     12.000000
  0.063715  0.000000  0.031537     12.000000
  0.095573  0.000000  0.031537     12.000000
  0.127431  0.000000  0.031537     12.000000
  0.159288  0.000000  0.031537     12.000000
  0.047786  0.027590  0.031537     12.000000
  0.079644  0.027590  0.031537     24.000000
  0.111502  0.027590  0.031537     24.000000
  0.143359  0.027590  0.031537     24.000000
  0.175217  0.027590  0.031537     12.000000
  0.095573  0.055179  0.031537     12.000000
  0.127431  0.055179  0.031537     24.000000
  0.159288  0.055179  0.031537     24.000000
  0.143359  0.082769  0.031537     12.000000
  0.175217  0.082769  0.031537     12.000000
  0.000000  0.000000  0.063074      2.000000
  0.031858  0.000000  0.063074     12.000000
  0.063715  0.000000  0.063074     12.000000
  0.095573  0.000000  0.063074     12.000000
  0.127431  0.000000  0.063074     12.000000
  0.159288  0.000000  0.063074     12.000000
  0.047786  0.027590  0.063074     12.000000
  0.079644  0.027590  0.063074     24.000000
  0.111502  0.027590  0.063074     24.000000
  0.143359  0.027590  0.063074     24.000000
  0.175217  0.027590  0.063074     12.000000
  0.095573  0.055179  0.063074     12.000000
  0.127431  0.055179  0.063074     24.000000
  0.159288  0.055179  0.063074     24.000000
  0.143359  0.082769  0.063074     12.000000
  0.175217  0.082769  0.063074     12.000000
  0.000000  0.000000  0.094611      1.000000
  0.031858  0.000000  0.094611      6.000000
  0.063715  0.000000  0.094611      6.000000
  0.095573  0.000000  0.094611      6.000000
  0.127431  0.000000  0.094611      6.000000
  0.159288  0.000000  0.094611      6.000000
  0.047786  0.027590  0.094611      6.000000
  0.079644  0.027590  0.094611     12.000000
  0.111502  0.027590  0.094611     12.000000
  0.143359  0.027590  0.094611     12.000000
  0.175217  0.027590  0.094611      6.000000
  0.095573  0.055179  0.094611      6.000000
  0.127431  0.055179  0.094611     12.000000
  0.159288  0.055179  0.094611     12.000000
  0.143359  0.082769  0.094611      6.000000
  0.175217  0.082769  0.094611      6.000000
 
 
 Subroutine IBZKPT_HF returns following result:
 ==============================================
 
 Found    726 k-points in 1st BZ
 the following    726 k-points will be used (e.g. in the exchange kernel)
 Following reciprocal coordinates:   # in IRBZ
  0.000000  0.000000  0.000000    0.00137741   1 t-inv F
  0.090909  0.000000  0.000000    0.00137741   2 t-inv F
  0.181818  0.000000  0.000000    0.00137741   3 t-inv F
  0.272727  0.000000  0.000000    0.00137741   4 t-inv F
  0.363636  0.000000  0.000000    0.00137741   5 t-inv F
  0.454545  0.000000  0.000000    0.00137741   6 t-inv F
  0.090909  0.090909  0.000000    0.00137741   7 t-inv F
  0.181818  0.090909  0.000000    0.00137741   8 t-inv F
  0.272727  0.090909  0.000000    0.00137741   9 t-inv F
  0.363636  0.090909  0.000000    0.00137741  10 t-inv F
  0.454545  0.090909  0.000000    0.00137741  11 t-inv F
  0.181818  0.181818  0.000000    0.00137741  12 t-inv F
  0.272727  0.181818  0.000000    0.00137741  13 t-inv F
  0.363636  0.181818  0.000000    0.00137741  14 t-inv F
  0.272727  0.272727  0.000000    0.00137741  15 t-inv F
  0.363636  0.272727  0.000000    0.00137741  16 t-inv F
  0.000000  0.000000  0.166667    0.00137741  17 t-inv F
  0.090909  0.000000  0.166667    0.00137741  18 t-inv F
  0.181818  0.000000  0.166667    0.00137741  19 t-inv F
  0.272727  0.000000  0.166667    0.00137741  20 t-inv F
  0.363636  0.000000  0.166667    0.00137741  21 t-inv F
  0.454545  0.000000  0.166667    0.00137741  22 t-inv F
  0.090909  0.090909  0.166667    0.00137741  23 t-inv F
  0.181818  0.090909  0.166667    0.00137741  24 t-inv F
  0.272727  0.090909  0.166667    0.00137741  25 t-inv F
  0.363636  0.090909  0.166667    0.00137741  26 t-inv F
  0.454545  0.090909  0.166667    0.00137741  27 t-inv F
  0.181818  0.181818  0.166667    0.00137741  28 t-inv F
  0.272727  0.181818  0.166667    0.00137741  29 t-inv F
  0.363636  0.181818  0.166667    0.00137741  30 t-inv F
  0.272727  0.272727  0.166667    0.00137741  31 t-inv F
  0.363636  0.272727  0.166667    0.00137741  32 t-inv F
  0.000000  0.000000  0.333333    0.00137741  33 t-inv F
  0.090909  0.000000  0.333333    0.00137741  34 t-inv F
  0.181818  0.000000  0.333333    0.00137741  35 t-inv F
  0.272727  0.000000  0.333333    0.00137741  36 t-inv F
  0.363636  0.000000  0.333333    0.00137741  37 t-inv F
  0.454545  0.000000  0.333333    0.00137741  38 t-inv F
  0.090909  0.090909  0.333333    0.00137741  39 t-inv F
  0.181818  0.090909  0.333333    0.00137741  40 t-inv F
  0.272727  0.090909  0.333333    0.00137741  41 t-inv F
  0.363636  0.090909  0.333333    0.00137741  42 t-inv F
  0.454545  0.090909  0.333333    0.00137741  43 t-inv F
  0.181818  0.181818  0.333333    0.00137741  44 t-inv F
  0.272727  0.181818  0.333333    0.00137741  45 t-inv F
  0.363636  0.181818  0.333333    0.00137741  46 t-inv F
  0.272727  0.272727  0.333333    0.00137741  47 t-inv F
  0.363636  0.272727  0.333333    0.00137741  48 t-inv F
  0.000000  0.000000  0.500000    0.00137741  49 t-inv F
  0.090909  0.000000  0.500000    0.00137741  50 t-inv F
  0.181818  0.000000  0.500000    0.00137741  51 t-inv F
  0.272727  0.000000  0.500000    0.00137741  52 t-inv F
  0.363636  0.000000  0.500000    0.00137741  53 t-inv F
  0.454545  0.000000  0.500000    0.00137741  54 t-inv F
  0.090909  0.090909  0.500000    0.00137741  55 t-inv F
  0.181818  0.090909  0.500000    0.00137741  56 t-inv F
  0.272727  0.090909  0.500000    0.00137741  57 t-inv F
  0.363636  0.090909  0.500000    0.00137741  58 t-inv F
  0.454545  0.090909  0.500000    0.00137741  59 t-inv F
  0.181818  0.181818  0.500000    0.00137741  60 t-inv F
  0.272727  0.181818  0.500000    0.00137741  61 t-inv F
  0.363636  0.181818  0.500000    0.00137741  62 t-inv F
  0.272727  0.272727  0.500000    0.00137741  63 t-inv F
  0.363636  0.272727  0.500000    0.00137741  64 t-inv F
 -0.090909  0.090909  0.000000    0.00137741   2 t-inv F
  0.000000 -0.090909  0.000000    0.00137741   2 t-inv F
 -0.000000  0.090909  0.000000    0.00137741   2 t-inv F
 -0.090909 -0.000000  0.000000    0.00137741   2 t-inv F
  0.090909 -0.090909  0.000000    0.00137741   2 t-inv F
 -0.181818  0.181818  0.000000    0.00137741   3 t-inv F
  0.000000 -0.181818  0.000000    0.00137741   3 t-inv F
 -0.000000  0.181818  0.000000    0.00137741   3 t-inv F
 -0.181818 -0.000000  0.000000    0.00137741   3 t-inv F
  0.181818 -0.181818  0.000000    0.00137741   3 t-inv F
 -0.272727  0.272727  0.000000    0.00137741   4 t-inv F
  0.000000 -0.272727  0.000000    0.00137741   4 t-inv F
 -0.000000  0.272727  0.000000    0.00137741   4 t-inv F
 -0.272727 -0.000000  0.000000    0.00137741   4 t-inv F
  0.272727 -0.272727  0.000000    0.00137741   4 t-inv F
 -0.363636  0.363636  0.000000    0.00137741   5 t-inv F
  0.000000 -0.363636  0.000000    0.00137741   5 t-inv F
 -0.000000  0.363636  0.000000    0.00137741   5 t-inv F
 -0.363636 -0.000000  0.000000    0.00137741   5 t-inv F
  0.363636 -0.363636  0.000000    0.00137741   5 t-inv F
 -0.454545  0.454545  0.000000    0.00137741   6 t-inv F
  0.000000 -0.454545  0.000000    0.00137741   6 t-inv F
 -0.000000  0.454545  0.000000    0.00137741   6 t-inv F
 -0.454545 -0.000000  0.000000    0.00137741   6 t-inv F
  0.454545 -0.454545  0.000000    0.00137741   6 t-inv F
 -0.181818  0.090909  0.000000    0.00137741   7 t-inv F
  0.090909 -0.181818  0.000000    0.00137741   7 t-inv F
 -0.090909  0.181818  0.000000    0.00137741   7 t-inv F
  0.181818 -0.090909  0.000000    0.00137741   7 t-inv F
 -0.090909 -0.090909  0.000000    0.00137741   7 t-inv F
 -0.272727  0.181818  0.000000    0.00137741   8 t-inv F
  0.090909 -0.272727  0.000000    0.00137741   8 t-inv F
 -0.181818  0.272727  0.000000    0.00137741   8 t-inv F
  0.272727 -0.090909  0.000000    0.00137741   8 t-inv F
 -0.090909 -0.181818  0.000000    0.00137741   8 t-inv F
 -0.090909  0.272727  0.000000    0.00137741   8 t-inv F
 -0.181818 -0.090909  0.000000    0.00137741   8 t-inv F
  0.272727 -0.181818  0.000000    0.00137741   8 t-inv F
  0.090909  0.181818  0.000000    0.00137741   8 t-inv F
  0.181818 -0.272727  0.000000    0.00137741   8 t-inv F
 -0.272727  0.090909  0.000000    0.00137741   8 t-inv F
 -0.363636  0.272727  0.000000    0.00137741   9 t-inv F
  0.090909 -0.363636  0.000000    0.00137741   9 t-inv F
 -0.272727  0.363636  0.000000    0.00137741   9 t-inv F
  0.363636 -0.090909  0.000000    0.00137741   9 t-inv F
 -0.090909 -0.272727  0.000000    0.00137741   9 t-inv F
 -0.090909  0.363636  0.000000    0.00137741   9 t-inv F
 -0.272727 -0.090909  0.000000    0.00137741   9 t-inv F
  0.363636 -0.272727  0.000000    0.00137741   9 t-inv F
  0.090909  0.272727  0.000000    0.00137741   9 t-inv F
  0.272727 -0.363636  0.000000    0.00137741   9 t-inv F
 -0.363636  0.090909  0.000000    0.00137741   9 t-inv F
 -0.454545  0.363636  0.000000    0.00137741  10 t-inv F
  0.090909 -0.454545  0.000000    0.00137741  10 t-inv F
 -0.363636  0.454545  0.000000    0.00137741  10 t-inv F
  0.454545 -0.090909  0.000000    0.00137741  10 t-inv F
 -0.090909 -0.363636  0.000000    0.00137741  10 t-inv F
 -0.090909  0.454545  0.000000    0.00137741  10 t-inv F
 -0.363636 -0.090909  0.000000    0.00137741  10 t-inv F
  0.454545 -0.363636  0.000000    0.00137741  10 t-inv F
  0.090909  0.363636  0.000000    0.00137741  10 t-inv F
  0.363636 -0.454545  0.000000    0.00137741  10 t-inv F
 -0.454545  0.090909  0.000000    0.00137741  10 t-inv F
 -0.545455  0.454545  0.000000    0.00137741  11 t-inv F
  0.090909 -0.545455  0.000000    0.00137741  11 t-inv F
 -0.454545  0.545455  0.000000    0.00137741  11 t-inv F
  0.545455 -0.090909  0.000000    0.00137741  11 t-inv F
 -0.090909 -0.454545  0.000000    0.00137741  11 t-inv F
 -0.363636  0.181818  0.000000    0.00137741  12 t-inv F
  0.181818 -0.363636  0.000000    0.00137741  12 t-inv F
 -0.181818  0.363636  0.000000    0.00137741  12 t-inv F
  0.363636 -0.181818  0.000000    0.00137741  12 t-inv F
 -0.181818 -0.181818  0.000000    0.00137741  12 t-inv F
 -0.454545  0.272727  0.000000    0.00137741  13 t-inv F
  0.181818 -0.454545  0.000000    0.00137741  13 t-inv F
 -0.272727  0.454545  0.000000    0.00137741  13 t-inv F
  0.454545 -0.181818  0.000000    0.00137741  13 t-inv F
 -0.181818 -0.272727  0.000000    0.00137741  13 t-inv F
 -0.181818  0.454545  0.000000    0.00137741  13 t-inv F
 -0.272727 -0.181818  0.000000    0.00137741  13 t-inv F
  0.454545 -0.272727  0.000000    0.00137741  13 t-inv F
  0.181818  0.272727  0.000000    0.00137741  13 t-inv F
  0.272727 -0.454545  0.000000    0.00137741  13 t-inv F
 -0.454545  0.181818  0.000000    0.00137741  13 t-inv F
 -0.545455  0.363636  0.000000    0.00137741  14 t-inv F
  0.181818 -0.545455  0.000000    0.00137741  14 t-inv F
 -0.363636  0.545455  0.000000    0.00137741  14 t-inv F
  0.545455 -0.181818  0.000000    0.00137741  14 t-inv F
 -0.181818 -0.363636  0.000000    0.00137741  14 t-inv F
 -0.181818  0.545455  0.000000    0.00137741  14 t-inv F
 -0.363636 -0.181818  0.000000    0.00137741  14 t-inv F
  0.545455 -0.363636  0.000000    0.00137741  14 t-inv F
  0.181818  0.363636  0.000000    0.00137741  14 t-inv F
  0.363636 -0.545455  0.000000    0.00137741  14 t-inv F
 -0.545455  0.181818  0.000000    0.00137741  14 t-inv F
 -0.545455  0.272727  0.000000    0.00137741  15 t-inv F
  0.272727 -0.545455  0.000000    0.00137741  15 t-inv F
 -0.272727  0.545455  0.000000    0.00137741  15 t-inv F
  0.545455 -0.272727  0.000000    0.00137741  15 t-inv F
 -0.272727 -0.272727  0.000000    0.00137741  15 t-inv F
 -0.636364  0.363636  0.000000    0.00137741  16 t-inv F
  0.272727 -0.636364  0.000000    0.00137741  16 t-inv F
 -0.363636  0.636364  0.000000    0.00137741  16 t-inv F
  0.636364 -0.272727  0.000000    0.00137741  16 t-inv F
 -0.272727 -0.363636  0.000000    0.00137741  16 t-inv F
 -0.090909  0.090909  0.166667    0.00137741  18 t-inv F
  0.000000 -0.090909  0.166667    0.00137741  18 t-inv F
 -0.000000  0.090909  0.166667    0.00137741  18 t-inv F
 -0.090909 -0.000000  0.166667    0.00137741  18 t-inv F
  0.090909 -0.090909  0.166667    0.00137741  18 t-inv F
 -0.181818  0.181818  0.166667    0.00137741  19 t-inv F
  0.000000 -0.181818  0.166667    0.00137741  19 t-inv F
 -0.000000  0.181818  0.166667    0.00137741  19 t-inv F
 -0.181818 -0.000000  0.166667    0.00137741  19 t-inv F
  0.181818 -0.181818  0.166667    0.00137741  19 t-inv F
 -0.272727  0.272727  0.166667    0.00137741  20 t-inv F
  0.000000 -0.272727  0.166667    0.00137741  20 t-inv F
 -0.000000  0.272727  0.166667    0.00137741  20 t-inv F
 -0.272727 -0.000000  0.166667    0.00137741  20 t-inv F
  0.272727 -0.272727  0.166667    0.00137741  20 t-inv F
 -0.363636  0.363636  0.166667    0.00137741  21 t-inv F
  0.000000 -0.363636  0.166667    0.00137741  21 t-inv F
 -0.000000  0.363636  0.166667    0.00137741  21 t-inv F
 -0.363636 -0.000000  0.166667    0.00137741  21 t-inv F
  0.363636 -0.363636  0.166667    0.00137741  21 t-inv F
 -0.454545  0.454545  0.166667    0.00137741  22 t-inv F
  0.000000 -0.454545  0.166667    0.00137741  22 t-inv F
 -0.000000  0.454545  0.166667    0.00137741  22 t-inv F
 -0.454545 -0.000000  0.166667    0.00137741  22 t-inv F
  0.454545 -0.454545  0.166667    0.00137741  22 t-inv F
 -0.181818  0.090909  0.166667    0.00137741  23 t-inv F
  0.090909 -0.181818  0.166667    0.00137741  23 t-inv F
 -0.090909  0.181818  0.166667    0.00137741  23 t-inv F
  0.181818 -0.090909  0.166667    0.00137741  23 t-inv F
 -0.090909 -0.090909  0.166667    0.00137741  23 t-inv F
 -0.272727  0.181818  0.166667    0.00137741  24 t-inv F
  0.090909 -0.272727  0.166667    0.00137741  24 t-inv F
 -0.181818  0.272727  0.166667    0.00137741  24 t-inv F
  0.272727 -0.090909  0.166667    0.00137741  24 t-inv F
 -0.090909 -0.181818  0.166667    0.00137741  24 t-inv F
 -0.090909  0.272727  0.166667    0.00137741  24 t-inv F
 -0.181818 -0.090909  0.166667    0.00137741  24 t-inv F
  0.272727 -0.181818  0.166667    0.00137741  24 t-inv F
  0.090909  0.181818  0.166667    0.00137741  24 t-inv F
  0.181818 -0.272727  0.166667    0.00137741  24 t-inv F
 -0.272727  0.090909  0.166667    0.00137741  24 t-inv F
 -0.363636  0.272727  0.166667    0.00137741  25 t-inv F
  0.090909 -0.363636  0.166667    0.00137741  25 t-inv F
 -0.272727  0.363636  0.166667    0.00137741  25 t-inv F
  0.363636 -0.090909  0.166667    0.00137741  25 t-inv F
 -0.090909 -0.272727  0.166667    0.00137741  25 t-inv F
 -0.090909  0.363636  0.166667    0.00137741  25 t-inv F
 -0.272727 -0.090909  0.166667    0.00137741  25 t-inv F
  0.363636 -0.272727  0.166667    0.00137741  25 t-inv F
  0.090909  0.272727  0.166667    0.00137741  25 t-inv F
  0.272727 -0.363636  0.166667    0.00137741  25 t-inv F
 -0.363636  0.090909  0.166667    0.00137741  25 t-inv F
 -0.454545  0.363636  0.166667    0.00137741  26 t-inv F
  0.090909 -0.454545  0.166667    0.00137741  26 t-inv F
 -0.363636  0.454545  0.166667    0.00137741  26 t-inv F
  0.454545 -0.090909  0.166667    0.00137741  26 t-inv F
 -0.090909 -0.363636  0.166667    0.00137741  26 t-inv F
 -0.090909  0.454545  0.166667    0.00137741  26 t-inv F
 -0.363636 -0.090909  0.166667    0.00137741  26 t-inv F
  0.454545 -0.363636  0.166667    0.00137741  26 t-inv F
  0.090909  0.363636  0.166667    0.00137741  26 t-inv F
  0.363636 -0.454545  0.166667    0.00137741  26 t-inv F
 -0.454545  0.090909  0.166667    0.00137741  26 t-inv F
 -0.545455  0.454545  0.166667    0.00137741  27 t-inv F
  0.090909 -0.545455  0.166667    0.00137741  27 t-inv F
 -0.454545  0.545455  0.166667    0.00137741  27 t-inv F
  0.545455 -0.090909  0.166667    0.00137741  27 t-inv F
 -0.090909 -0.454545  0.166667    0.00137741  27 t-inv F
 -0.363636  0.181818  0.166667    0.00137741  28 t-inv F
  0.181818 -0.363636  0.166667    0.00137741  28 t-inv F
 -0.181818  0.363636  0.166667    0.00137741  28 t-inv F
  0.363636 -0.181818  0.166667    0.00137741  28 t-inv F
 -0.181818 -0.181818  0.166667    0.00137741  28 t-inv F
 -0.454545  0.272727  0.166667    0.00137741  29 t-inv F
  0.181818 -0.454545  0.166667    0.00137741  29 t-inv F
 -0.272727  0.454545  0.166667    0.00137741  29 t-inv F
  0.454545 -0.181818  0.166667    0.00137741  29 t-inv F
 -0.181818 -0.272727  0.166667    0.00137741  29 t-inv F
 -0.181818  0.454545  0.166667    0.00137741  29 t-inv F
 -0.272727 -0.181818  0.166667    0.00137741  29 t-inv F
  0.454545 -0.272727  0.166667    0.00137741  29 t-inv F
  0.181818  0.272727  0.166667    0.00137741  29 t-inv F
  0.272727 -0.454545  0.166667    0.00137741  29 t-inv F
 -0.454545  0.181818  0.166667    0.00137741  29 t-inv F
 -0.545455  0.363636  0.166667    0.00137741  30 t-inv F
  0.181818 -0.545455  0.166667    0.00137741  30 t-inv F
 -0.363636  0.545455  0.166667    0.00137741  30 t-inv F
  0.545455 -0.181818  0.166667    0.00137741  30 t-inv F
 -0.181818 -0.363636  0.166667    0.00137741  30 t-inv F
 -0.181818  0.545455  0.166667    0.00137741  30 t-inv F
 -0.363636 -0.181818  0.166667    0.00137741  30 t-inv F
  0.545455 -0.363636  0.166667    0.00137741  30 t-inv F
  0.181818  0.363636  0.166667    0.00137741  30 t-inv F
  0.363636 -0.545455  0.166667    0.00137741  30 t-inv F
 -0.545455  0.181818  0.166667    0.00137741  30 t-inv F
 -0.545455  0.272727  0.166667    0.00137741  31 t-inv F
  0.272727 -0.545455  0.166667    0.00137741  31 t-inv F
 -0.272727  0.545455  0.166667    0.00137741  31 t-inv F
  0.545455 -0.272727  0.166667    0.00137741  31 t-inv F
 -0.272727 -0.272727  0.166667    0.00137741  31 t-inv F
 -0.636364  0.363636  0.166667    0.00137741  32 t-inv F
  0.272727 -0.636364  0.166667    0.00137741  32 t-inv F
 -0.363636  0.636364  0.166667    0.00137741  32 t-inv F
  0.636364 -0.272727  0.166667    0.00137741  32 t-inv F
 -0.272727 -0.363636  0.166667    0.00137741  32 t-inv F
 -0.090909  0.090909  0.333333    0.00137741  34 t-inv F
  0.000000 -0.090909  0.333333    0.00137741  34 t-inv F
 -0.000000  0.090909  0.333333    0.00137741  34 t-inv F
 -0.090909 -0.000000  0.333333    0.00137741  34 t-inv F
  0.090909 -0.090909  0.333333    0.00137741  34 t-inv F
 -0.181818  0.181818  0.333333    0.00137741  35 t-inv F
  0.000000 -0.181818  0.333333    0.00137741  35 t-inv F
 -0.000000  0.181818  0.333333    0.00137741  35 t-inv F
 -0.181818 -0.000000  0.333333    0.00137741  35 t-inv F
  0.181818 -0.181818  0.333333    0.00137741  35 t-inv F
 -0.272727  0.272727  0.333333    0.00137741  36 t-inv F
  0.000000 -0.272727  0.333333    0.00137741  36 t-inv F
 -0.000000  0.272727  0.333333    0.00137741  36 t-inv F
 -0.272727 -0.000000  0.333333    0.00137741  36 t-inv F
  0.272727 -0.272727  0.333333    0.00137741  36 t-inv F
 -0.363636  0.363636  0.333333    0.00137741  37 t-inv F
  0.000000 -0.363636  0.333333    0.00137741  37 t-inv F
 -0.000000  0.363636  0.333333    0.00137741  37 t-inv F
 -0.363636 -0.000000  0.333333    0.00137741  37 t-inv F
  0.363636 -0.363636  0.333333    0.00137741  37 t-inv F
 -0.454545  0.454545  0.333333    0.00137741  38 t-inv F
  0.000000 -0.454545  0.333333    0.00137741  38 t-inv F
 -0.000000  0.454545  0.333333    0.00137741  38 t-inv F
 -0.454545 -0.000000  0.333333    0.00137741  38 t-inv F
  0.454545 -0.454545  0.333333    0.00137741  38 t-inv F
 -0.181818  0.090909  0.333333    0.00137741  39 t-inv F
  0.090909 -0.181818  0.333333    0.00137741  39 t-inv F
 -0.090909  0.181818  0.333333    0.00137741  39 t-inv F
  0.181818 -0.090909  0.333333    0.00137741  39 t-inv F
 -0.090909 -0.090909  0.333333    0.00137741  39 t-inv F
 -0.272727  0.181818  0.333333    0.00137741  40 t-inv F
  0.090909 -0.272727  0.333333    0.00137741  40 t-inv F
 -0.181818  0.272727  0.333333    0.00137741  40 t-inv F
  0.272727 -0.090909  0.333333    0.00137741  40 t-inv F
 -0.090909 -0.181818  0.333333    0.00137741  40 t-inv F
 -0.090909  0.272727  0.333333    0.00137741  40 t-inv F
 -0.181818 -0.090909  0.333333    0.00137741  40 t-inv F
  0.272727 -0.181818  0.333333    0.00137741  40 t-inv F
  0.090909  0.181818  0.333333    0.00137741  40 t-inv F
  0.181818 -0.272727  0.333333    0.00137741  40 t-inv F
 -0.272727  0.090909  0.333333    0.00137741  40 t-inv F
 -0.363636  0.272727  0.333333    0.00137741  41 t-inv F
  0.090909 -0.363636  0.333333    0.00137741  41 t-inv F
 -0.272727  0.363636  0.333333    0.00137741  41 t-inv F
  0.363636 -0.090909  0.333333    0.00137741  41 t-inv F
 -0.090909 -0.272727  0.333333    0.00137741  41 t-inv F
 -0.090909  0.363636  0.333333    0.00137741  41 t-inv F
 -0.272727 -0.090909  0.333333    0.00137741  41 t-inv F
  0.363636 -0.272727  0.333333    0.00137741  41 t-inv F
  0.090909  0.272727  0.333333    0.00137741  41 t-inv F
  0.272727 -0.363636  0.333333    0.00137741  41 t-inv F
 -0.363636  0.090909  0.333333    0.00137741  41 t-inv F
 -0.454545  0.363636  0.333333    0.00137741  42 t-inv F
  0.090909 -0.454545  0.333333    0.00137741  42 t-inv F
 -0.363636  0.454545  0.333333    0.00137741  42 t-inv F
  0.454545 -0.090909  0.333333    0.00137741  42 t-inv F
 -0.090909 -0.363636  0.333333    0.00137741  42 t-inv F
 -0.090909  0.454545  0.333333    0.00137741  42 t-inv F
 -0.363636 -0.090909  0.333333    0.00137741  42 t-inv F
  0.454545 -0.363636  0.333333    0.00137741  42 t-inv F
  0.090909  0.363636  0.333333    0.00137741  42 t-inv F
  0.363636 -0.454545  0.333333    0.00137741  42 t-inv F
 -0.454545  0.090909  0.333333    0.00137741  42 t-inv F
 -0.545455  0.454545  0.333333    0.00137741  43 t-inv F
  0.090909 -0.545455  0.333333    0.00137741  43 t-inv F
 -0.454545  0.545455  0.333333    0.00137741  43 t-inv F
  0.545455 -0.090909  0.333333    0.00137741  43 t-inv F
 -0.090909 -0.454545  0.333333    0.00137741  43 t-inv F
 -0.363636  0.181818  0.333333    0.00137741  44 t-inv F
  0.181818 -0.363636  0.333333    0.00137741  44 t-inv F
 -0.181818  0.363636  0.333333    0.00137741  44 t-inv F
  0.363636 -0.181818  0.333333    0.00137741  44 t-inv F
 -0.181818 -0.181818  0.333333    0.00137741  44 t-inv F
 -0.454545  0.272727  0.333333    0.00137741  45 t-inv F
  0.181818 -0.454545  0.333333    0.00137741  45 t-inv F
 -0.272727  0.454545  0.333333    0.00137741  45 t-inv F
  0.454545 -0.181818  0.333333    0.00137741  45 t-inv F
 -0.181818 -0.272727  0.333333    0.00137741  45 t-inv F
 -0.181818  0.454545  0.333333    0.00137741  45 t-inv F
 -0.272727 -0.181818  0.333333    0.00137741  45 t-inv F
  0.454545 -0.272727  0.333333    0.00137741  45 t-inv F
  0.181818  0.272727  0.333333    0.00137741  45 t-inv F
  0.272727 -0.454545  0.333333    0.00137741  45 t-inv F
 -0.454545  0.181818  0.333333    0.00137741  45 t-inv F
 -0.545455  0.363636  0.333333    0.00137741  46 t-inv F
  0.181818 -0.545455  0.333333    0.00137741  46 t-inv F
 -0.363636  0.545455  0.333333    0.00137741  46 t-inv F
  0.545455 -0.181818  0.333333    0.00137741  46 t-inv F
 -0.181818 -0.363636  0.333333    0.00137741  46 t-inv F
 -0.181818  0.545455  0.333333    0.00137741  46 t-inv F
 -0.363636 -0.181818  0.333333    0.00137741  46 t-inv F
  0.545455 -0.363636  0.333333    0.00137741  46 t-inv F
  0.181818  0.363636  0.333333    0.00137741  46 t-inv F
  0.363636 -0.545455  0.333333    0.00137741  46 t-inv F
 -0.545455  0.181818  0.333333    0.00137741  46 t-inv F
 -0.545455  0.272727  0.333333    0.00137741  47 t-inv F
  0.272727 -0.545455  0.333333    0.00137741  47 t-inv F
 -0.272727  0.545455  0.333333    0.00137741  47 t-inv F
  0.545455 -0.272727  0.333333    0.00137741  47 t-inv F
 -0.272727 -0.272727  0.333333    0.00137741  47 t-inv F
 -0.636364  0.363636  0.333333    0.00137741  48 t-inv F
  0.272727 -0.636364  0.333333    0.00137741  48 t-inv F
 -0.363636  0.636364  0.333333    0.00137741  48 t-inv F
  0.636364 -0.272727  0.333333    0.00137741  48 t-inv F
 -0.272727 -0.363636  0.333333    0.00137741  48 t-inv F
 -0.090909  0.090909  0.500000    0.00137741  50 t-inv F
  0.000000 -0.090909  0.500000    0.00137741  50 t-inv F
 -0.000000  0.090909  0.500000    0.00137741  50 t-inv F
 -0.090909 -0.000000  0.500000    0.00137741  50 t-inv F
  0.090909 -0.090909  0.500000    0.00137741  50 t-inv F
 -0.181818  0.181818  0.500000    0.00137741  51 t-inv F
  0.000000 -0.181818  0.500000    0.00137741  51 t-inv F
 -0.000000  0.181818  0.500000    0.00137741  51 t-inv F
 -0.181818 -0.000000  0.500000    0.00137741  51 t-inv F
  0.181818 -0.181818  0.500000    0.00137741  51 t-inv F
 -0.272727  0.272727  0.500000    0.00137741  52 t-inv F
  0.000000 -0.272727  0.500000    0.00137741  52 t-inv F
 -0.000000  0.272727  0.500000    0.00137741  52 t-inv F
 -0.272727 -0.000000  0.500000    0.00137741  52 t-inv F
  0.272727 -0.272727  0.500000    0.00137741  52 t-inv F
 -0.363636  0.363636  0.500000    0.00137741  53 t-inv F
  0.000000 -0.363636  0.500000    0.00137741  53 t-inv F
 -0.000000  0.363636  0.500000    0.00137741  53 t-inv F
 -0.363636 -0.000000  0.500000    0.00137741  53 t-inv F
  0.363636 -0.363636  0.500000    0.00137741  53 t-inv F
 -0.454545  0.454545  0.500000    0.00137741  54 t-inv F
  0.000000 -0.454545  0.500000    0.00137741  54 t-inv F
 -0.000000  0.454545  0.500000    0.00137741  54 t-inv F
 -0.454545 -0.000000  0.500000    0.00137741  54 t-inv F
  0.454545 -0.454545  0.500000    0.00137741  54 t-inv F
 -0.181818  0.090909  0.500000    0.00137741  55 t-inv F
  0.090909 -0.181818  0.500000    0.00137741  55 t-inv F
 -0.090909  0.181818  0.500000    0.00137741  55 t-inv F
  0.181818 -0.090909  0.500000    0.00137741  55 t-inv F
 -0.090909 -0.090909  0.500000    0.00137741  55 t-inv F
 -0.272727  0.181818  0.500000    0.00137741  56 t-inv F
  0.090909 -0.272727  0.500000    0.00137741  56 t-inv F
 -0.181818  0.272727  0.500000    0.00137741  56 t-inv F
  0.272727 -0.090909  0.500000    0.00137741  56 t-inv F
 -0.090909 -0.181818  0.500000    0.00137741  56 t-inv F
 -0.090909  0.272727  0.500000    0.00137741  56 t-inv F
 -0.181818 -0.090909  0.500000    0.00137741  56 t-inv F
  0.272727 -0.181818  0.500000    0.00137741  56 t-inv F
  0.090909  0.181818  0.500000    0.00137741  56 t-inv F
  0.181818 -0.272727  0.500000    0.00137741  56 t-inv F
 -0.272727  0.090909  0.500000    0.00137741  56 t-inv F
 -0.363636  0.272727  0.500000    0.00137741  57 t-inv F
  0.090909 -0.363636  0.500000    0.00137741  57 t-inv F
 -0.272727  0.363636  0.500000    0.00137741  57 t-inv F
  0.363636 -0.090909  0.500000    0.00137741  57 t-inv F
 -0.090909 -0.272727  0.500000    0.00137741  57 t-inv F
 -0.090909  0.363636  0.500000    0.00137741  57 t-inv F
 -0.272727 -0.090909  0.500000    0.00137741  57 t-inv F
  0.363636 -0.272727  0.500000    0.00137741  57 t-inv F
  0.090909  0.272727  0.500000    0.00137741  57 t-inv F
  0.272727 -0.363636  0.500000    0.00137741  57 t-inv F
 -0.363636  0.090909  0.500000    0.00137741  57 t-inv F
 -0.454545  0.363636  0.500000    0.00137741  58 t-inv F
  0.090909 -0.454545  0.500000    0.00137741  58 t-inv F
 -0.363636  0.454545  0.500000    0.00137741  58 t-inv F
  0.454545 -0.090909  0.500000    0.00137741  58 t-inv F
 -0.090909 -0.363636  0.500000    0.00137741  58 t-inv F
 -0.090909  0.454545  0.500000    0.00137741  58 t-inv F
 -0.363636 -0.090909  0.500000    0.00137741  58 t-inv F
  0.454545 -0.363636  0.500000    0.00137741  58 t-inv F
  0.090909  0.363636  0.500000    0.00137741  58 t-inv F
  0.363636 -0.454545  0.500000    0.00137741  58 t-inv F
 -0.454545  0.090909  0.500000    0.00137741  58 t-inv F
 -0.545455  0.454545  0.500000    0.00137741  59 t-inv F
  0.090909 -0.545455  0.500000    0.00137741  59 t-inv F
 -0.454545  0.545455  0.500000    0.00137741  59 t-inv F
  0.545455 -0.090909  0.500000    0.00137741  59 t-inv F
 -0.090909 -0.454545  0.500000    0.00137741  59 t-inv F
 -0.363636  0.181818  0.500000    0.00137741  60 t-inv F
  0.181818 -0.363636  0.500000    0.00137741  60 t-inv F
 -0.181818  0.363636  0.500000    0.00137741  60 t-inv F
  0.363636 -0.181818  0.500000    0.00137741  60 t-inv F
 -0.181818 -0.181818  0.500000    0.00137741  60 t-inv F
 -0.454545  0.272727  0.500000    0.00137741  61 t-inv F
  0.181818 -0.454545  0.500000    0.00137741  61 t-inv F
 -0.272727  0.454545  0.500000    0.00137741  61 t-inv F
  0.454545 -0.181818  0.500000    0.00137741  61 t-inv F
 -0.181818 -0.272727  0.500000    0.00137741  61 t-inv F
 -0.181818  0.454545  0.500000    0.00137741  61 t-inv F
 -0.272727 -0.181818  0.500000    0.00137741  61 t-inv F
  0.454545 -0.272727  0.500000    0.00137741  61 t-inv F
  0.181818  0.272727  0.500000    0.00137741  61 t-inv F
  0.272727 -0.454545  0.500000    0.00137741  61 t-inv F
 -0.454545  0.181818  0.500000    0.00137741  61 t-inv F
 -0.545455  0.363636  0.500000    0.00137741  62 t-inv F
  0.181818 -0.545455  0.500000    0.00137741  62 t-inv F
 -0.363636  0.545455  0.500000    0.00137741  62 t-inv F
  0.545455 -0.181818  0.500000    0.00137741  62 t-inv F
 -0.181818 -0.363636  0.500000    0.00137741  62 t-inv F
 -0.181818  0.545455  0.500000    0.00137741  62 t-inv F
 -0.363636 -0.181818  0.500000    0.00137741  62 t-inv F
  0.545455 -0.363636  0.500000    0.00137741  62 t-inv F
  0.181818  0.363636  0.500000    0.00137741  62 t-inv F
  0.363636 -0.545455  0.500000    0.00137741  62 t-inv F
 -0.545455  0.181818  0.500000    0.00137741  62 t-inv F
 -0.545455  0.272727  0.500000    0.00137741  63 t-inv F
  0.272727 -0.545455  0.500000    0.00137741  63 t-inv F
 -0.272727  0.545455  0.500000    0.00137741  63 t-inv F
  0.545455 -0.272727  0.500000    0.00137741  63 t-inv F
 -0.272727 -0.272727  0.500000    0.00137741  63 t-inv F
 -0.636364  0.363636  0.500000    0.00137741  64 t-inv F
  0.272727 -0.636364  0.500000    0.00137741  64 t-inv F
 -0.363636  0.636364  0.500000    0.00137741  64 t-inv F
  0.636364 -0.272727  0.500000    0.00137741  64 t-inv F
 -0.272727 -0.363636  0.500000    0.00137741  64 t-inv F
 -0.000000 -0.000000 -0.166667    0.00137741  17 t-inv T
 -0.090909 -0.000000 -0.166667    0.00137741  18 t-inv T
  0.090909 -0.090909 -0.166667    0.00137741  18 t-inv T
 -0.000000  0.090909 -0.166667    0.00137741  18 t-inv T
  0.000000 -0.090909 -0.166667    0.00137741  18 t-inv T
  0.090909  0.000000 -0.166667    0.00137741  18 t-inv T
 -0.090909  0.090909 -0.166667    0.00137741  18 t-inv T
 -0.181818 -0.000000 -0.166667    0.00137741  19 t-inv T
  0.181818 -0.181818 -0.166667    0.00137741  19 t-inv T
 -0.000000  0.181818 -0.166667    0.00137741  19 t-inv T
  0.000000 -0.181818 -0.166667    0.00137741  19 t-inv T
  0.181818  0.000000 -0.166667    0.00137741  19 t-inv T
 -0.181818  0.181818 -0.166667    0.00137741  19 t-inv T
 -0.272727 -0.000000 -0.166667    0.00137741  20 t-inv T
  0.272727 -0.272727 -0.166667    0.00137741  20 t-inv T
 -0.000000  0.272727 -0.166667    0.00137741  20 t-inv T
  0.000000 -0.272727 -0.166667    0.00137741  20 t-inv T
  0.272727  0.000000 -0.166667    0.00137741  20 t-inv T
 -0.272727  0.272727 -0.166667    0.00137741  20 t-inv T
 -0.363636 -0.000000 -0.166667    0.00137741  21 t-inv T
  0.363636 -0.363636 -0.166667    0.00137741  21 t-inv T
 -0.000000  0.363636 -0.166667    0.00137741  21 t-inv T
  0.000000 -0.363636 -0.166667    0.00137741  21 t-inv T
  0.363636  0.000000 -0.166667    0.00137741  21 t-inv T
 -0.363636  0.363636 -0.166667    0.00137741  21 t-inv T
 -0.454545 -0.000000 -0.166667    0.00137741  22 t-inv T
  0.454545 -0.454545 -0.166667    0.00137741  22 t-inv T
 -0.000000  0.454545 -0.166667    0.00137741  22 t-inv T
  0.000000 -0.454545 -0.166667    0.00137741  22 t-inv T
  0.454545  0.000000 -0.166667    0.00137741  22 t-inv T
 -0.454545  0.454545 -0.166667    0.00137741  22 t-inv T
 -0.090909 -0.090909 -0.166667    0.00137741  23 t-inv T
  0.181818 -0.090909 -0.166667    0.00137741  23 t-inv T
 -0.090909  0.181818 -0.166667    0.00137741  23 t-inv T
  0.090909 -0.181818 -0.166667    0.00137741  23 t-inv T
 -0.181818  0.090909 -0.166667    0.00137741  23 t-inv T
  0.090909  0.090909 -0.166667    0.00137741  23 t-inv T
 -0.181818 -0.090909 -0.166667    0.00137741  24 t-inv T
  0.272727 -0.181818 -0.166667    0.00137741  24 t-inv T
 -0.090909  0.272727 -0.166667    0.00137741  24 t-inv T
  0.181818 -0.272727 -0.166667    0.00137741  24 t-inv T
 -0.272727  0.090909 -0.166667    0.00137741  24 t-inv T
  0.090909  0.181818 -0.166667    0.00137741  24 t-inv T
  0.090909 -0.272727 -0.166667    0.00137741  24 t-inv T
  0.181818  0.090909 -0.166667    0.00137741  24 t-inv T
 -0.272727  0.181818 -0.166667    0.00137741  24 t-inv T
 -0.090909 -0.181818 -0.166667    0.00137741  24 t-inv T
 -0.181818  0.272727 -0.166667    0.00137741  24 t-inv T
  0.272727 -0.090909 -0.166667    0.00137741  24 t-inv T
 -0.272727 -0.090909 -0.166667    0.00137741  25 t-inv T
  0.363636 -0.272727 -0.166667    0.00137741  25 t-inv T
 -0.090909  0.363636 -0.166667    0.00137741  25 t-inv T
  0.272727 -0.363636 -0.166667    0.00137741  25 t-inv T
 -0.363636  0.090909 -0.166667    0.00137741  25 t-inv T
  0.090909  0.272727 -0.166667    0.00137741  25 t-inv T
  0.090909 -0.363636 -0.166667    0.00137741  25 t-inv T
  0.272727  0.090909 -0.166667    0.00137741  25 t-inv T
 -0.363636  0.272727 -0.166667    0.00137741  25 t-inv T
 -0.090909 -0.272727 -0.166667    0.00137741  25 t-inv T
 -0.272727  0.363636 -0.166667    0.00137741  25 t-inv T
  0.363636 -0.090909 -0.166667    0.00137741  25 t-inv T
 -0.363636 -0.090909 -0.166667    0.00137741  26 t-inv T
  0.454545 -0.363636 -0.166667    0.00137741  26 t-inv T
 -0.090909  0.454545 -0.166667    0.00137741  26 t-inv T
  0.363636 -0.454545 -0.166667    0.00137741  26 t-inv T
 -0.454545  0.090909 -0.166667    0.00137741  26 t-inv T
  0.090909  0.363636 -0.166667    0.00137741  26 t-inv T
  0.090909 -0.454545 -0.166667    0.00137741  26 t-inv T
  0.363636  0.090909 -0.166667    0.00137741  26 t-inv T
 -0.454545  0.363636 -0.166667    0.00137741  26 t-inv T
 -0.090909 -0.363636 -0.166667    0.00137741  26 t-inv T
 -0.363636  0.454545 -0.166667    0.00137741  26 t-inv T
  0.454545 -0.090909 -0.166667    0.00137741  26 t-inv T
 -0.454545 -0.090909 -0.166667    0.00137741  27 t-inv T
  0.545455 -0.454545 -0.166667    0.00137741  27 t-inv T
 -0.090909  0.545455 -0.166667    0.00137741  27 t-inv T
  0.454545 -0.545455 -0.166667    0.00137741  27 t-inv T
 -0.545455  0.090909 -0.166667    0.00137741  27 t-inv T
  0.090909  0.454545 -0.166667    0.00137741  27 t-inv T
 -0.181818 -0.181818 -0.166667    0.00137741  28 t-inv T
  0.363636 -0.181818 -0.166667    0.00137741  28 t-inv T
 -0.181818  0.363636 -0.166667    0.00137741  28 t-inv T
  0.181818 -0.363636 -0.166667    0.00137741  28 t-inv T
 -0.363636  0.181818 -0.166667    0.00137741  28 t-inv T
  0.181818  0.181818 -0.166667    0.00137741  28 t-inv T
 -0.272727 -0.181818 -0.166667    0.00137741  29 t-inv T
  0.454545 -0.272727 -0.166667    0.00137741  29 t-inv T
 -0.181818  0.454545 -0.166667    0.00137741  29 t-inv T
  0.272727 -0.454545 -0.166667    0.00137741  29 t-inv T
 -0.454545  0.181818 -0.166667    0.00137741  29 t-inv T
  0.181818  0.272727 -0.166667    0.00137741  29 t-inv T
  0.181818 -0.454545 -0.166667    0.00137741  29 t-inv T
  0.272727  0.181818 -0.166667    0.00137741  29 t-inv T
 -0.454545  0.272727 -0.166667    0.00137741  29 t-inv T
 -0.181818 -0.272727 -0.166667    0.00137741  29 t-inv T
 -0.272727  0.454545 -0.166667    0.00137741  29 t-inv T
  0.454545 -0.181818 -0.166667    0.00137741  29 t-inv T
 -0.363636 -0.181818 -0.166667    0.00137741  30 t-inv T
  0.545455 -0.363636 -0.166667    0.00137741  30 t-inv T
 -0.181818  0.545455 -0.166667    0.00137741  30 t-inv T
  0.363636 -0.545455 -0.166667    0.00137741  30 t-inv T
 -0.545455  0.181818 -0.166667    0.00137741  30 t-inv T
  0.181818  0.363636 -0.166667    0.00137741  30 t-inv T
  0.181818 -0.545455 -0.166667    0.00137741  30 t-inv T
  0.363636  0.181818 -0.166667    0.00137741  30 t-inv T
 -0.545455  0.363636 -0.166667    0.00137741  30 t-inv T
 -0.181818 -0.363636 -0.166667    0.00137741  30 t-inv T
 -0.363636  0.545455 -0.166667    0.00137741  30 t-inv T
  0.545455 -0.181818 -0.166667    0.00137741  30 t-inv T
 -0.272727 -0.272727 -0.166667    0.00137741  31 t-inv T
  0.545455 -0.272727 -0.166667    0.00137741  31 t-inv T
 -0.272727  0.545455 -0.166667    0.00137741  31 t-inv T
  0.272727 -0.545455 -0.166667    0.00137741  31 t-inv T
 -0.545455  0.272727 -0.166667    0.00137741  31 t-inv T
  0.272727  0.272727 -0.166667    0.00137741  31 t-inv T
 -0.363636 -0.272727 -0.166667    0.00137741  32 t-inv T
  0.636364 -0.363636 -0.166667    0.00137741  32 t-inv T
 -0.272727  0.636364 -0.166667    0.00137741  32 t-inv T
  0.363636 -0.636364 -0.166667    0.00137741  32 t-inv T
 -0.636364  0.272727 -0.166667    0.00137741  32 t-inv T
  0.272727  0.363636 -0.166667    0.00137741  32 t-inv T
 -0.000000 -0.000000 -0.333333    0.00137741  33 t-inv T
 -0.090909 -0.000000 -0.333333    0.00137741  34 t-inv T
  0.090909 -0.090909 -0.333333    0.00137741  34 t-inv T
 -0.000000  0.090909 -0.333333    0.00137741  34 t-inv T
  0.000000 -0.090909 -0.333333    0.00137741  34 t-inv T
  0.090909  0.000000 -0.333333    0.00137741  34 t-inv T
 -0.090909  0.090909 -0.333333    0.00137741  34 t-inv T
 -0.181818 -0.000000 -0.333333    0.00137741  35 t-inv T
  0.181818 -0.181818 -0.333333    0.00137741  35 t-inv T
 -0.000000  0.181818 -0.333333    0.00137741  35 t-inv T
  0.000000 -0.181818 -0.333333    0.00137741  35 t-inv T
  0.181818  0.000000 -0.333333    0.00137741  35 t-inv T
 -0.181818  0.181818 -0.333333    0.00137741  35 t-inv T
 -0.272727 -0.000000 -0.333333    0.00137741  36 t-inv T
  0.272727 -0.272727 -0.333333    0.00137741  36 t-inv T
 -0.000000  0.272727 -0.333333    0.00137741  36 t-inv T
  0.000000 -0.272727 -0.333333    0.00137741  36 t-inv T
  0.272727  0.000000 -0.333333    0.00137741  36 t-inv T
 -0.272727  0.272727 -0.333333    0.00137741  36 t-inv T
 -0.363636 -0.000000 -0.333333    0.00137741  37 t-inv T
  0.363636 -0.363636 -0.333333    0.00137741  37 t-inv T
 -0.000000  0.363636 -0.333333    0.00137741  37 t-inv T
  0.000000 -0.363636 -0.333333    0.00137741  37 t-inv T
  0.363636  0.000000 -0.333333    0.00137741  37 t-inv T
 -0.363636  0.363636 -0.333333    0.00137741  37 t-inv T
 -0.454545 -0.000000 -0.333333    0.00137741  38 t-inv T
  0.454545 -0.454545 -0.333333    0.00137741  38 t-inv T
 -0.000000  0.454545 -0.333333    0.00137741  38 t-inv T
  0.000000 -0.454545 -0.333333    0.00137741  38 t-inv T
  0.454545  0.000000 -0.333333    0.00137741  38 t-inv T
 -0.454545  0.454545 -0.333333    0.00137741  38 t-inv T
 -0.090909 -0.090909 -0.333333    0.00137741  39 t-inv T
  0.181818 -0.090909 -0.333333    0.00137741  39 t-inv T
 -0.090909  0.181818 -0.333333    0.00137741  39 t-inv T
  0.090909 -0.181818 -0.333333    0.00137741  39 t-inv T
 -0.181818  0.090909 -0.333333    0.00137741  39 t-inv T
  0.090909  0.090909 -0.333333    0.00137741  39 t-inv T
 -0.181818 -0.090909 -0.333333    0.00137741  40 t-inv T
  0.272727 -0.181818 -0.333333    0.00137741  40 t-inv T
 -0.090909  0.272727 -0.333333    0.00137741  40 t-inv T
  0.181818 -0.272727 -0.333333    0.00137741  40 t-inv T
 -0.272727  0.090909 -0.333333    0.00137741  40 t-inv T
  0.090909  0.181818 -0.333333    0.00137741  40 t-inv T
  0.090909 -0.272727 -0.333333    0.00137741  40 t-inv T
  0.181818  0.090909 -0.333333    0.00137741  40 t-inv T
 -0.272727  0.181818 -0.333333    0.00137741  40 t-inv T
 -0.090909 -0.181818 -0.333333    0.00137741  40 t-inv T
 -0.181818  0.272727 -0.333333    0.00137741  40 t-inv T
  0.272727 -0.090909 -0.333333    0.00137741  40 t-inv T
 -0.272727 -0.090909 -0.333333    0.00137741  41 t-inv T
  0.363636 -0.272727 -0.333333    0.00137741  41 t-inv T
 -0.090909  0.363636 -0.333333    0.00137741  41 t-inv T
  0.272727 -0.363636 -0.333333    0.00137741  41 t-inv T
 -0.363636  0.090909 -0.333333    0.00137741  41 t-inv T
  0.090909  0.272727 -0.333333    0.00137741  41 t-inv T
  0.090909 -0.363636 -0.333333    0.00137741  41 t-inv T
  0.272727  0.090909 -0.333333    0.00137741  41 t-inv T
 -0.363636  0.272727 -0.333333    0.00137741  41 t-inv T
 -0.090909 -0.272727 -0.333333    0.00137741  41 t-inv T
 -0.272727  0.363636 -0.333333    0.00137741  41 t-inv T
  0.363636 -0.090909 -0.333333    0.00137741  41 t-inv T
 -0.363636 -0.090909 -0.333333    0.00137741  42 t-inv T
  0.454545 -0.363636 -0.333333    0.00137741  42 t-inv T
 -0.090909  0.454545 -0.333333    0.00137741  42 t-inv T
  0.363636 -0.454545 -0.333333    0.00137741  42 t-inv T
 -0.454545  0.090909 -0.333333    0.00137741  42 t-inv T
  0.090909  0.363636 -0.333333    0.00137741  42 t-inv T
  0.090909 -0.454545 -0.333333    0.00137741  42 t-inv T
  0.363636  0.090909 -0.333333    0.00137741  42 t-inv T
 -0.454545  0.363636 -0.333333    0.00137741  42 t-inv T
 -0.090909 -0.363636 -0.333333    0.00137741  42 t-inv T
 -0.363636  0.454545 -0.333333    0.00137741  42 t-inv T
  0.454545 -0.090909 -0.333333    0.00137741  42 t-inv T
 -0.454545 -0.090909 -0.333333    0.00137741  43 t-inv T
  0.545455 -0.454545 -0.333333    0.00137741  43 t-inv T
 -0.090909  0.545455 -0.333333    0.00137741  43 t-inv T
  0.454545 -0.545455 -0.333333    0.00137741  43 t-inv T
 -0.545455  0.090909 -0.333333    0.00137741  43 t-inv T
  0.090909  0.454545 -0.333333    0.00137741  43 t-inv T
 -0.181818 -0.181818 -0.333333    0.00137741  44 t-inv T
  0.363636 -0.181818 -0.333333    0.00137741  44 t-inv T
 -0.181818  0.363636 -0.333333    0.00137741  44 t-inv T
  0.181818 -0.363636 -0.333333    0.00137741  44 t-inv T
 -0.363636  0.181818 -0.333333    0.00137741  44 t-inv T
  0.181818  0.181818 -0.333333    0.00137741  44 t-inv T
 -0.272727 -0.181818 -0.333333    0.00137741  45 t-inv T
  0.454545 -0.272727 -0.333333    0.00137741  45 t-inv T
 -0.181818  0.454545 -0.333333    0.00137741  45 t-inv T
  0.272727 -0.454545 -0.333333    0.00137741  45 t-inv T
 -0.454545  0.181818 -0.333333    0.00137741  45 t-inv T
  0.181818  0.272727 -0.333333    0.00137741  45 t-inv T
  0.181818 -0.454545 -0.333333    0.00137741  45 t-inv T
  0.272727  0.181818 -0.333333    0.00137741  45 t-inv T
 -0.454545  0.272727 -0.333333    0.00137741  45 t-inv T
 -0.181818 -0.272727 -0.333333    0.00137741  45 t-inv T
 -0.272727  0.454545 -0.333333    0.00137741  45 t-inv T
  0.454545 -0.181818 -0.333333    0.00137741  45 t-inv T
 -0.363636 -0.181818 -0.333333    0.00137741  46 t-inv T
  0.545455 -0.363636 -0.333333    0.00137741  46 t-inv T
 -0.181818  0.545455 -0.333333    0.00137741  46 t-inv T
  0.363636 -0.545455 -0.333333    0.00137741  46 t-inv T
 -0.545455  0.181818 -0.333333    0.00137741  46 t-inv T
  0.181818  0.363636 -0.333333    0.00137741  46 t-inv T
  0.181818 -0.545455 -0.333333    0.00137741  46 t-inv T
  0.363636  0.181818 -0.333333    0.00137741  46 t-inv T
 -0.545455  0.363636 -0.333333    0.00137741  46 t-inv T
 -0.181818 -0.363636 -0.333333    0.00137741  46 t-inv T
 -0.363636  0.545455 -0.333333    0.00137741  46 t-inv T
  0.545455 -0.181818 -0.333333    0.00137741  46 t-inv T
 -0.272727 -0.272727 -0.333333    0.00137741  47 t-inv T
  0.545455 -0.272727 -0.333333    0.00137741  47 t-inv T
 -0.272727  0.545455 -0.333333    0.00137741  47 t-inv T
  0.272727 -0.545455 -0.333333    0.00137741  47 t-inv T
 -0.545455  0.272727 -0.333333    0.00137741  47 t-inv T
  0.272727  0.272727 -0.333333    0.00137741  47 t-inv T
 -0.363636 -0.272727 -0.333333    0.00137741  48 t-inv T
  0.636364 -0.363636 -0.333333    0.00137741  48 t-inv T
 -0.272727  0.636364 -0.333333    0.00137741  48 t-inv T
  0.363636 -0.636364 -0.333333    0.00137741  48 t-inv T
 -0.636364  0.272727 -0.333333    0.00137741  48 t-inv T
  0.272727  0.363636 -0.333333    0.00137741  48 t-inv T


--------------------------------------------------------------------------------------------------------




 Dimension of arrays:
   k-points           NKPTS =     64   k-points in BZ     NKDIM =     64   number of bands    NBANDS=     24
   number of dos      NEDOS =    301   number of ions     NIONS =      4
   non local maximal  LDIM  =      6   non local SUM 2l+1 LMDIM =     18
   total plane-waves  NPLWV =  32928
   max r-space proj   IRMAX =      1   max aug-charges    IRDMAX=  19948
   dimension x,y,z NGX =    28 NGY =   28 NGZ =   42
   dimension x,y,z NGXF=    56 NGYF=   56 NGZF=   84
   support grid    NGXF=    56 NGYF=   56 NGZF=   84
   ions per type =               2   2
   NGX,Y,Z   is equivalent  to a cutoff of  14.13, 14.13, 13.21 a.u.
   NGXF,Y,Z  is equivalent  to a cutoff of  28.25, 28.25, 26.42 a.u.

 SYSTEM =  unknown system                          
 POSCAR =  Zn O                                    

 Startparameter for this run:
   NWRITE =      2    write-flag & timer
   PREC   = accura    normal or accurate (medium, high low for compatibility)
   ISTART =      0    job   : 0-new  1-cont  2-samecut
   ICHARG =      2    charge: 1-file 2-atom 10-const
   ISPIN  =      1    spin polarized calculation?
   LNONCOLLINEAR =      F non collinear calculations
   LSORBIT =      F    spin-orbit coupling
   INIWAV =      1    electr: 0-lowe 1-rand  2-diag
   LASPH  =      F    aspherical Exc in radial PAW
   METAGGA=      F    non-selfconsistent MetaGGA calc.

 Electronic Relaxation 1
   ENCUT  =  600.0 eV  44.10 Ry    6.64 a.u.   6.58  6.58 10.56*2*pi/ulx,y,z
   ENINI  =  600.0     initial cutoff
   ENAUG  =  605.4 eV  augmentation charge cutoff
   NELM   =     60;   NELMIN=  4; NELMDL=  0     # of ELM steps 
   EDIFF  = 0.5E-07   stopping-criterion for ELM
   LREAL  =      F    real-space projection
   NLSPLINE    = F    spline interpolate recip. space projectors
   LCOMPAT=      F    compatible to vasp.4.4
   GGA_COMPAT  = T    GGA compatible to vasp.4.4-vasp.4.6
   LMAXPAW     = -100 max onsite density
   LMAXMIX     =    2 max onsite mixed and CHGCAR
   VOSKOWN=      0    Vosko Wilk Nusair interpolation
   ROPT   =    0.00000   0.00000
 Ionic relaxation
   EDIFFG = 0.5E-06   stopping-criterion for IOM
   NSW    =      1    number of steps for IOM
   NBLOCK =      1;   KBLOCK =      1    inner block; outer block 
   IBRION =     -1    ionic relax: 0-MD 1-quasi-New 2-CG
   NFREE  =      0    steps in history (QN), initial steepest desc. (CG)
   ISIF   =      3    stress and relaxation
   IWAVPR =     10    prediction:  0-non 1-charg 2-wave 3-comb
   ISYM   =      2    0-nonsym 1-usesym 2-fastsym
   LCORR  =      T    Harris-Foulkes like correction to forces

   POTIM  = 0.2000    time-step for ionic-motion
   TEIN   =    0.0    initial temperature
   TEBEG  =    0.0;   TEEND  =   0.0 temperature during run
   SMASS  =  -3.00    Nose mass-parameter (am)
   estimated Nose-frequenzy (Omega)   =  0.10E-29 period in steps =****** mass=  -0.248E-27a.u.
   SCALEE = 1.0000    scale energy and forces
   NPACO  =    256;   APACO  = 16.0  distance and # of slots for P.C.
   PSTRESS=    0.0 pullay stress

  Mass of Ions in am
   POMASS =  65.39 16.00
  Ionic Valenz
   ZVAL   =  12.00  6.00
  Atomic Wigner-Seitz radii
   RWIGS  =  -1.00 -1.00
  virtual crystal weights 
   VCA    =   1.00  1.00
   NELECT =      36.0000    total number of electrons
   NUPDOWN=      -1.0000    fix difference up-down

 DOS related values:
   EMIN   =  10.00;   EMAX   =-10.00  energy-range for DOS
   EFERMI =   0.00
   ISMEAR =     0;   SIGMA  =   0.05  broadening in eV -4-tet -1-fermi 0-gaus

 Electronic relaxation 2 (details)
   IALGO  =     68    algorithm
   LDIAG  =      T    sub-space diagonalisation (order eigenvalues)
   LSUBROT=      F    optimize rotation matrix (better conditioning)
   TURBO    =      0    0=normal 1=particle mesh
   IRESTART =      0    0=no restart 2=restart with 2 vectors
   NREBOOT  =      0    no. of reboots
   NMIN     =      0    reboot dimension
   EREF     =   0.00    reference energy to select bands
   IMIX   =      4    mixing-type and parameters
     AMIX     =   0.40;   BMIX     =  1.00
     AMIX_MAG =   1.60;   BMIX_MAG =  1.00
     AMIN     =   0.10
     WC   =   100.;   INIMIX=   1;  MIXPRE=   1;  MAXMIX= -45

 Intra band minimization:
   WEIMIN = 0.0000     energy-eigenvalue tresh-hold
   EBREAK =  0.52E-09  absolut break condition
   DEPER  =   0.30     relativ break condition  

   TIME   =   0.40     timestep for ELM

  volume/ion in A,a.u.               =      12.42        83.83
  Fermi-wavevector in a.u.,A,eV,Ry     =   1.470325  2.778511 29.413815  2.161854
  Thomas-Fermi vector in A             =   2.585595

 Write flags
   LWAVE        =      F    write WAVECAR
   LDOWNSAMPLE  =      F    k-point downsampling of WAVECAR
   LCHARG       =      F    write CHGCAR
   LVTOT        =      F    write LOCPOT, total local potential
   LVHAR        =      F    write LOCPOT, Hartree potential only
   LELF         =      F    write electronic localiz. function (ELF)
   LORBIT       =      0    0 simple, 1 ext, 2 COOP (PROOUT), +10 PAW based schemes


 Dipole corrections
   LMONO  =      F    monopole corrections only (constant potential shift)
   LDIPOL =      F    correct potential (dipole corrections)
   IDIPOL =      0    1-x, 2-y, 3-z, 4-all directions 
   EPSILON=  1.0000000 bulk dielectric constant

 Exchange correlation treatment:
   GGA     =    --    GGA type
   LEXCH   =     8    internal setting for exchange type
   VOSKOWN=      0    Vosko Wilk Nusair interpolation
   LHFCALC =     F    Hartree Fock is set to
   LHFONE  =     F    Hartree Fock one center treatment
   AEXX    =    0.0000 exact exchange contribution

 Linear response parameters
   LEPSILON=     T    determine dielectric tensor
   LRPA    =     F    only Hartree local field effects (RPA)
   LNABLA  =     F    use nabla operator in PAW spheres
   LVEL    =     F    velocity operator in full k-point grid
   LINTERFAST=   F  fast interpolation
   KINTER  =     0    interpolate to denser k-point grid
   CSHIFT  =0.1000    complex shift for real part using Kramers Kronig
   OMEGAMAX=  -1.0    maximum frequency
   DEG_THRESHOLD= 0.2000000E-02 threshold for treating states as degnerate
   RTIME   =   -0.100 relaxation time in fs
  (WPLASMAI=    0.000 imaginary part of plasma frequency in eV, 0.658/RTIME)
   DFIELD  = 0.0000000 0.0000000 0.0000000 field for delta impulse in time

 Orbital magnetization related:
   ORBITALMAG=     F  switch on orbital magnetization
   LCHIMAG   =     F  perturbation theory with respect to B field
   DQ        =  0.001000  dq finite difference perturbation B field
   LLRAUG    =     F  two centre corrections for induced B field



--------------------------------------------------------------------------------------------------------


 Static calculation
 charge density and potential will be updated during run
 non-spin polarized calculation
 RMM-DIIS sequential band-by-band and
  variant of blocked Davidson during initial phase
 perform sub-space diagonalisation
    before iterative eigenvector-optimisation
 modified Broyden-mixing scheme, WC =      100.0
 initial mixing is a Kerker type mixing with AMIX =  0.4000 and BMIX =      1.0000
 Hartree-type preconditioning will be used
 using additional bands            6
 reciprocal scheme for non local part
 use partial core corrections
 calculate Harris-corrections to forces   (improved forces if not selfconsistent)
 use gradient corrections 
 use of overlap-Matrix (Vanderbilt PP)
 Gauss-broadening in eV      SIGMA  =   0.05


--------------------------------------------------------------------------------------------------------


  energy-cutoff  :      600.00
  volume of cell :       49.69
      direct lattice vectors                 reciprocal lattice vectors
     2.853604050 -1.647529067  0.000000000     0.350434041  0.000000000  0.000000000
     0.000000000  3.295058133  0.000000000     0.175217021  0.303484782 -0.000000000
     0.000000000  0.000000000  5.284824189    -0.000000000  0.000000000  0.189221053

  length of vectors
     3.295058133  3.295058133  5.284824189     0.350434041  0.350434041  0.189221053



 k-points in units of 2pi/SCALE and weight: Generated by cif2cell 1.1.0. k-space res
   0.00000000  0.00000000  0.00000000       0.001
   0.03185764  0.00000000  0.00000000       0.008
   0.06371528  0.00000000  0.00000000       0.008
   0.09557292  0.00000000  0.00000000       0.008
   0.12743056  0.00000000  0.00000000       0.008
   0.15928820  0.00000000  0.00000000       0.008
   0.04778646  0.02758953  0.00000000       0.008
   0.07964410  0.02758953  0.00000000       0.017
   0.11150174  0.02758953  0.00000000       0.017
   0.14335938  0.02758953  0.00000000       0.017
   0.17521702  0.02758953  0.00000000       0.008
   0.09557292  0.05517905  0.00000000       0.008
   0.12743056  0.05517905  0.00000000       0.017
   0.15928820  0.05517905  0.00000000       0.017
   0.14335938  0.08276858  0.00000000       0.008
   0.17521702  0.08276858  0.00000000       0.008
   0.00000000  0.00000000  0.03153684       0.003
   0.03185764  0.00000000  0.03153684       0.017
   0.06371528  0.00000000  0.03153684       0.017
   0.09557292  0.00000000  0.03153684       0.017
   0.12743056  0.00000000  0.03153684       0.017
   0.15928820  0.00000000  0.03153684       0.017
   0.04778646  0.02758953  0.03153684       0.017
   0.07964410  0.02758953  0.03153684       0.033
   0.11150174  0.02758953  0.03153684       0.033
   0.14335938  0.02758953  0.03153684       0.033
   0.17521702  0.02758953  0.03153684       0.017
   0.09557292  0.05517905  0.03153684       0.017
   0.12743056  0.05517905  0.03153684       0.033
   0.15928820  0.05517905  0.03153684       0.033
   0.14335938  0.08276858  0.03153684       0.017
   0.17521702  0.08276858  0.03153684       0.017
   0.00000000  0.00000000  0.06307368       0.003
   0.03185764  0.00000000  0.06307368       0.017
   0.06371528  0.00000000  0.06307368       0.017
   0.09557292  0.00000000  0.06307368       0.017
   0.12743056  0.00000000  0.06307368       0.017
   0.15928820  0.00000000  0.06307368       0.017
   0.04778646  0.02758953  0.06307368       0.017
   0.07964410  0.02758953  0.06307368       0.033
   0.11150174  0.02758953  0.06307368       0.033
   0.14335938  0.02758953  0.06307368       0.033
   0.17521702  0.02758953  0.06307368       0.017
   0.09557292  0.05517905  0.06307368       0.017
   0.12743056  0.05517905  0.06307368       0.033
   0.15928820  0.05517905  0.06307368       0.033
   0.14335938  0.08276858  0.06307368       0.017
   0.17521702  0.08276858  0.06307368       0.017
   0.00000000  0.00000000  0.09461053       0.001
   0.03185764  0.00000000  0.09461053       0.008
   0.06371528  0.00000000  0.09461053       0.008
   0.09557292  0.00000000  0.09461053       0.008
   0.12743056  0.00000000  0.09461053       0.008
   0.15928820  0.00000000  0.09461053       0.008
   0.04778646  0.02758953  0.09461053       0.008
   0.07964410  0.02758953  0.09461053       0.017
   0.11150174  0.02758953  0.09461053       0.017
   0.14335938  0.02758953  0.09461053       0.017
   0.17521702  0.02758953  0.09461053       0.008
   0.09557292  0.05517905  0.09461053       0.008
   0.12743056  0.05517905  0.09461053       0.017
   0.15928820  0.05517905  0.09461053       0.017
   0.14335938  0.08276858  0.09461053       0.008
   0.17521702  0.08276858  0.09461053       0.008

 k-points in reciprocal lattice and weights: Generated by cif2cell 1.1.0. k-space res
   0.00000000  0.00000000  0.00000000       0.001
   0.09090909  0.00000000  0.00000000       0.008
   0.18181818  0.00000000  0.00000000       0.008
   0.27272727  0.00000000  0.00000000       0.008
   0.36363636  0.00000000  0.00000000       0.008
   0.45454545  0.00000000  0.00000000       0.008
   0.09090909  0.09090909  0.00000000       0.008
   0.18181818  0.09090909  0.00000000       0.017
   0.27272727  0.09090909  0.00000000       0.017
   0.36363636  0.09090909  0.00000000       0.017
   0.45454545  0.09090909  0.00000000       0.008
   0.18181818  0.18181818  0.00000000       0.008
   0.27272727  0.18181818  0.00000000       0.017
   0.36363636  0.18181818  0.00000000       0.017
   0.27272727  0.27272727  0.00000000       0.008
   0.36363636  0.27272727  0.00000000       0.008
   0.00000000  0.00000000  0.16666667       0.003
   0.09090909  0.00000000  0.16666667       0.017
   0.18181818  0.00000000  0.16666667       0.017
   0.27272727  0.00000000  0.16666667       0.017
   0.36363636  0.00000000  0.16666667       0.017
   0.45454545  0.00000000  0.16666667       0.017
   0.09090909  0.09090909  0.16666667       0.017
   0.18181818  0.09090909  0.16666667       0.033
   0.27272727  0.09090909  0.16666667       0.033
   0.36363636  0.09090909  0.16666667       0.033
   0.45454545  0.09090909  0.16666667       0.017
   0.18181818  0.18181818  0.16666667       0.017
   0.27272727  0.18181818  0.16666667       0.033
   0.36363636  0.18181818  0.16666667       0.033
   0.27272727  0.27272727  0.16666667       0.017
   0.36363636  0.27272727  0.16666667       0.017
   0.00000000  0.00000000  0.33333333       0.003
   0.09090909  0.00000000  0.33333333       0.017
   0.18181818  0.00000000  0.33333333       0.017
   0.27272727  0.00000000  0.33333333       0.017
   0.36363636  0.00000000  0.33333333       0.017
   0.45454545  0.00000000  0.33333333       0.017
   0.09090909  0.09090909  0.33333333       0.017
   0.18181818  0.09090909  0.33333333       0.033
   0.27272727  0.09090909  0.33333333       0.033
   0.36363636  0.09090909  0.33333333       0.033
   0.45454545  0.09090909  0.33333333       0.017
   0.18181818  0.18181818  0.33333333       0.017
   0.27272727  0.18181818  0.33333333       0.033
   0.36363636  0.18181818  0.33333333       0.033
   0.27272727  0.27272727  0.33333333       0.017
   0.36363636  0.27272727  0.33333333       0.017
   0.00000000  0.00000000  0.50000000       0.001
   0.09090909  0.00000000  0.50000000       0.008
   0.18181818  0.00000000  0.50000000       0.008
   0.27272727  0.00000000  0.50000000       0.008
   0.36363636  0.00000000  0.50000000       0.008
   0.45454545  0.00000000  0.50000000       0.008
   0.09090909  0.09090909  0.50000000       0.008
   0.18181818  0.09090909  0.50000000       0.017
   0.27272727  0.09090909  0.50000000       0.017
   0.36363636  0.09090909  0.50000000       0.017
   0.45454545  0.09090909  0.50000000       0.008
   0.18181818  0.18181818  0.50000000       0.008
   0.27272727  0.18181818  0.50000000       0.017
   0.36363636  0.18181818  0.50000000       0.017
   0.27272727  0.27272727  0.50000000       0.008
   0.36363636  0.27272727  0.50000000       0.008

 position of ions in fractional coordinates (direct lattice) 
   0.33333333  0.66666667  0.00090035
   0.66666667  0.33333333  0.50090035
   0.33333333  0.66666667  0.38159965
   0.66666667  0.33333333  0.88159965

 position of ions in cartesian coordinates  (Angst):
   0.95120135  1.64752907  0.00475819
   1.90240270  0.00000000  2.64717029
   0.95120135  1.64752907  2.01668706
   1.90240270  0.00000000  4.65909915



--------------------------------------------------------------------------------------------------------


 k-point  1 :   0.0000 0.0000 0.0000  plane waves:    1689
 k-point  2 :   0.0909 0.0000 0.0000  plane waves:    1681
 k-point  3 :   0.1818 0.0000 0.0000  plane waves:    1673
 k-point  4 :   0.2727 0.0000 0.0000  plane waves:    1665
 k-point  5 :   0.3636 0.0000 0.0000  plane waves:    1652
 k-point  6 :   0.4545 0.0000 0.0000  plane waves:    1642
 k-point  7 :   0.0909 0.0909 0.0000  plane waves:    1671
 k-point  8 :   0.1818 0.0909 0.0000  plane waves:    1667
 k-point  9 :   0.2727 0.0909 0.0000  plane waves:    1665
 k-point 10 :   0.3636 0.0909 0.0000  plane waves:    1651
 k-point 11 :   0.4545 0.0909 0.0000  plane waves:    1636
 k-point 12 :   0.1818 0.1818 0.0000  plane waves:    1655
 k-point 13 :   0.2727 0.1818 0.0000  plane waves:    1665
 k-point 14 :   0.3636 0.1818 0.0000  plane waves:    1656
 k-point 15 :   0.2727 0.2727 0.0000  plane waves:    1659
 k-point 16 :   0.3636 0.2727 0.0000  plane waves:    1654
 k-point 17 :   0.0000 0.0000 0.1667  plane waves:    1701
 k-point 18 :   0.0909 0.0000 0.1667  plane waves:    1686
 k-point 19 :   0.1818 0.0000 0.1667  plane waves:    1667
 k-point 20 :   0.2727 0.0000 0.1667  plane waves:    1664
 k-point 21 :   0.3636 0.0000 0.1667  plane waves:    1653
 k-point 22 :   0.4545 0.0000 0.1667  plane waves:    1652
 k-point 23 :   0.0909 0.0909 0.1667  plane waves:    1671
 k-point 24 :   0.1818 0.0909 0.1667  plane waves:    1665
 k-point 25 :   0.2727 0.0909 0.1667  plane waves:    1660
 k-point 26 :   0.3636 0.0909 0.1667  plane waves:    1653
 k-point 27 :   0.4545 0.0909 0.1667  plane waves:    1645
 k-point 28 :   0.1818 0.1818 0.1667  plane waves:    1657
 k-point 29 :   0.2727 0.1818 0.1667  plane waves:    1656
 k-point 30 :   0.3636 0.1818 0.1667  plane waves:    1653
 k-point 31 :   0.2727 0.2727 0.1667  plane waves:    1662
 k-point 32 :   0.3636 0.2727 0.1667  plane waves:    1653
 k-point 33 :   0.0000 0.0000 0.3333  plane waves:    1677
 k-point 34 :   0.0909 0.0000 0.3333  plane waves:    1671
 k-point 35 :   0.1818 0.0000 0.3333  plane waves:    1672
 k-point 36 :   0.2727 0.0000 0.3333  plane waves:    1661
 k-point 37 :   0.3636 0.0000 0.3333  plane waves:    1649
 k-point 38 :   0.4545 0.0000 0.3333  plane waves:    1650
 k-point 39 :   0.0909 0.0909 0.3333  plane waves:    1661
 k-point 40 :   0.1818 0.0909 0.3333  plane waves:    1659
 k-point 41 :   0.2727 0.0909 0.3333  plane waves:    1657
 k-point 42 :   0.3636 0.0909 0.3333  plane waves:    1652
 k-point 43 :   0.4545 0.0909 0.3333  plane waves:    1655
 k-point 44 :   0.1818 0.1818 0.3333  plane waves:    1662
 k-point 45 :   0.2727 0.1818 0.3333  plane waves:    1658
 k-point 46 :   0.3636 0.1818 0.3333  plane waves:    1655
 k-point 47 :   0.2727 0.2727 0.3333  plane waves:    1652
 k-point 48 :   0.3636 0.2727 0.3333  plane waves:    1656
 k-point 49 :   0.0000 0.0000 0.5000  plane waves:    1654
 k-point 50 :   0.0909 0.0000 0.5000  plane waves:    1656
 k-point 51 :   0.1818 0.0000 0.5000  plane waves:    1660
 k-point 52 :   0.2727 0.0000 0.5000  plane waves:    1656
 k-point 53 :   0.3636 0.0000 0.5000  plane waves:    1660
 k-point 54 :   0.4545 0.0000 0.5000  plane waves:    1654
 k-point 55 :   0.0909 0.0909 0.5000  plane waves:    1658
 k-point 56 :   0.1818 0.0909 0.5000  plane waves:    1658
 k-point 57 :   0.2727 0.0909 0.5000  plane waves:    1658
 k-point 58 :   0.3636 0.0909 0.5000  plane waves:    1650
 k-point 59 :   0.4545 0.0909 0.5000  plane waves:    1656
 k-point 60 :   0.1818 0.1818 0.5000  plane waves:    1656
 k-point 61 :   0.2727 0.1818 0.5000  plane waves:    1666
 k-point 62 :   0.3636 0.1818 0.5000  plane waves:    1658
 k-point 63 :   0.2727 0.2727 0.5000  plane waves:    1650
 k-point 64 :   0.3636 0.2727 0.5000  plane waves:    1644

 maximum and minimum number of plane-waves per node :      1701     1636

 maximum number of plane-waves:      1701
 maximum index in each direction: 
   IXMAX=    6   IYMAX=    6   IZMAX=   10
   IXMIN=   -7   IYMIN=   -6   IZMIN=  -11


 serial   3D FFT for wavefunctions
 parallel 3D FFT for charge:
    minimum data exchange during FFTs selected (reduces bandwidth)


 total amount of memory used by VASP MPI-rank0    79839. kBytes
=======================================================================

[...]
  -V(xc)+E(xc)   XCENC  =         0.00044635
  PAW double counting   =         0.03866342       -0.04118161
  entropy T*S    EENTRO =         0.00000000
  eigenvalues    EBANDS =        -0.62930599
  ---------------------------------------------------
  free energy    TOTEN  =        -0.67189459 eV

  energy without entropy =       -0.67189459


----------------------------------------- Iteration    3(   5)  ---------------------------------------


   POT+DIJ:  cpu time    0.1500: real time    0.1508
    HAMIL1:  cpu time    0.8739: real time    0.8817
    LRDIAG:  cpu time    0.1045: real time    0.1050
    LRDIIS:  cpu time    2.8968: real time    2.9348
    LRDIAG:  cpu time    0.0892: real time    0.0895
    MIXING:  cpu time    0.0016: real time    0.0016
    --------------------------------------------
      LOOP:  cpu time    4.6489: real time    4.7043

 Broyden mixing:
  rms(total) = 0.26378E-02    rms(broyden)= 0.26377E-02
  rms(prec ) = 0.39951E-02
  weight for this iteration     100.00

 eigenvalues of (default mixing * dielectric matrix)
  average eigenvalue GAMMA=   1.9448
  0.9065  2.7528  2.1750

 Free energy of the ion-electron system (eV)
  ---------------------------------------------------
  -Hartree energ DENC   =        -0.04185591
  -V(xc)+E(xc)   XCENC  =         0.00046861
  PAW double counting   =         0.03945553       -0.04191187
  entropy T*S    EENTRO =         0.00000000
  eigenvalues    EBANDS =        -0.62993532
  ---------------------------------------------------
  free energy    TOTEN  =        -0.67377897 eV

  energy without entropy =       -0.67377897


----------------------------------------- Iteration    3(   6)  ---------------------------------------


   POT+DIJ:  cpu time    0.1378: real time    0.1385
    HAMIL1:  cpu time    0.8298: real time    0.8521
    LRDIAG:  cpu time    0.0946: real time    0.0951
    LRDIIS:  cpu time    2.9932: real time    3.0287
    LRDIAG:  cpu time    0.0819: real time    0.0822
    MIXING:  cpu time    0.0016: real time    0.0016
    --------------------------------------------
      LOOP:  cpu time    4.6722: real time    4.7396

 Broyden mixing:
  rms(total) = 0.68850E-03    rms(broyden)= 0.68843E-03
  rms(prec ) = 0.10540E-02
  weight for this iteration     100.00

 eigenvalues of (default mixing * dielectric matrix)
  average eigenvalue GAMMA=   1.8141
  2.8698  2.2739  1.2372  0.8753

 Free energy of the ion-electron system (eV)
  ---------------------------------------------------
  -Hartree energ DENC   =        -0.04296791
  -V(xc)+E(xc)   XCENC  =         0.00048854
  PAW double counting   =         0.04020380       -0.04260043
  entropy T*S    EENTRO =         0.00000000
  eigenvalues    EBANDS =        -0.63055475
  ---------------------------------------------------
  free energy    TOTEN  =        -0.67543075 eV

  energy without entropy =       -0.67543075


----------------------------------------- Iteration    3(   7)  ---------------------------------------


   POT+DIJ:  cpu time    0.1328: real time    0.1336
    HAMIL1:  cpu time    0.8391: real time    0.8607
    LRDIAG:  cpu time    0.0989: real time    0.1001
    LRDIIS:  cpu time    2.9417: real time    3.0278
    LRDIAG:  cpu time    0.0817: real time    0.0818
    MIXING:  cpu time    0.0015: real time    0.0015
    --------------------------------------------
      LOOP:  cpu time    4.6287: real time    4.7536

 Broyden mixing:
  rms(total) = 0.20550E-03    rms(broyden)= 0.20549E-03
  rms(prec ) = 0.34732E-03
  weight for this iteration     100.00

 eigenvalues of (default mixing * dielectric matrix)
  average eigenvalue GAMMA=   1.7777
  2.8396  2.3767  1.7917  1.0499  0.8306

 Free energy of the ion-electron system (eV)
  ---------------------------------------------------
  -Hartree energ DENC   =        -0.04295806
  -V(xc)+E(xc)   XCENC  =         0.00049011
  PAW double counting   =         0.04017975       -0.04255978
  entropy T*S    EENTRO =         0.00000000
  eigenvalues    EBANDS =        -0.63074307
  ---------------------------------------------------
  free energy    TOTEN  =        -0.67559105 eV

  energy without entropy =       -0.67559105


----------------------------------------- Iteration    3(   8)  ---------------------------------------


   POT+DIJ:  cpu time    0.1387: real time    0.1390
    HAMIL1:  cpu time    0.8321: real time    0.8606
    LRDIAG:  cpu time    0.0969: real time    0.1032
    LRDIIS:  cpu time    2.9710: real time    3.0454
    LRDIAG:  cpu time    0.0827: real time    0.0829
    MIXING:  cpu time    0.0015: real time    0.0015
    --------------------------------------------
      LOOP:  cpu time    4.6556: real time    4.7803

 Broyden mixing:
  rms(total) = 0.45146E-04    rms(broyden)= 0.45143E-04
  rms(prec ) = 0.67947E-04
  weight for this iteration     100.00

 eigenvalues of (default mixing * dielectric matrix)
  average eigenvalue GAMMA=   1.7855
  2.9069  2.3624  2.0659  1.5209  0.8267  1.0300

 Free energy of the ion-electron system (eV)
  ---------------------------------------------------
  -Hartree energ DENC   =        -0.04299998
  -V(xc)+E(xc)   XCENC  =         0.00049126
  PAW double counting   =         0.04019785       -0.04257608
  entropy T*S    EENTRO =         0.00000000
  eigenvalues    EBANDS =        -0.63080349
  ---------------------------------------------------
  free energy    TOTEN  =        -0.67569044 eV

  energy without entropy =       -0.67569044


----------------------------------------- Iteration    3(   9)  ---------------------------------------


   POT+DIJ:  cpu time    0.1379: real time    0.1460
    HAMIL1:  cpu time    0.8406: real time    0.8614
    LRDIAG:  cpu time    0.0947: real time    0.0950
    LRDIIS:  cpu time    3.0019: real time    3.0871
    LRDIAG:  cpu time    0.0821: real time    0.0823
    MIXING:  cpu time    0.0016: real time    0.0016
    --------------------------------------------
      LOOP:  cpu time    4.6916: real time    4.8218

 Broyden mixing:
  rms(total) = 0.18310E-04    rms(broyden)= 0.18309E-04
  rms(prec ) = 0.26057E-04
  weight for this iteration     100.00

 eigenvalues of (default mixing * dielectric matrix)
  average eigenvalue GAMMA=   1.8142
  2.9790  2.6391  2.3500  1.8270  1.1167  0.9616  0.8258

 Free energy of the ion-electron system (eV)
  ---------------------------------------------------
  -Hartree energ DENC   =        -0.04300763
  -V(xc)+E(xc)   XCENC  =         0.00049140
  PAW double counting   =         0.04018471       -0.04256458
  entropy T*S    EENTRO =         0.00000000
  eigenvalues    EBANDS =        -0.63080723
  ---------------------------------------------------
  free energy    TOTEN  =        -0.67570332 eV

  energy without entropy =       -0.67570332


----------------------------------------- Iteration    3(  10)  ---------------------------------------


   POT+DIJ:  cpu time    0.1339: real time    0.1342
    HAMIL1:  cpu time    0.8332: real time    0.8645
    LRDIAG:  cpu time    0.0929: real time    0.0935
    LRDIIS:  cpu time    2.6634: real time    2.7567
    LRDIAG:  cpu time    0.0837: real time    0.0912
    MIXING:  cpu time    0.0019: real time    0.0019
    --------------------------------------------
      LOOP:  cpu time    4.3437: real time    4.4897

 Broyden mixing:
  rms(total) = 0.29280E-05    rms(broyden)= 0.29276E-05
  rms(prec ) = 0.47160E-05
  weight for this iteration     100.00

 eigenvalues of (default mixing * dielectric matrix)
  average eigenvalue GAMMA=   1.7551
  3.0278  2.6218  2.3678  1.8507  0.8263  0.9400  1.0908  1.3156

 Free energy of the ion-electron system (eV)
  ---------------------------------------------------
  -Hartree energ DENC   =        -0.04300419
  -V(xc)+E(xc)   XCENC  =         0.00049137
  PAW double counting   =         0.04017101       -0.04255127
  entropy T*S    EENTRO =         0.00000000
  eigenvalues    EBANDS =        -0.63080858
  ---------------------------------------------------
  free energy    TOTEN  =        -0.67570166 eV

  energy without entropy =       -0.67570166


----------------------------------------- Iteration    3(  11)  ---------------------------------------


   POT+DIJ:  cpu time    0.1323: real time    0.1380
    HAMIL1:  cpu time    0.8455: real time    0.8624
    LRDIAG:  cpu time    0.0931: real time    0.0997
    LRDIIS:  cpu time    1.9064: real time    1.9678
    LRDIAG:  cpu time    0.0830: real time    0.0831
    MIXING:  cpu time    0.0019: real time    0.0019
    --------------------------------------------
      LOOP:  cpu time    3.5951: real time    3.7376

 Broyden mixing:
  rms(total) = 0.14020E-05    rms(broyden)= 0.14020E-05
  rms(prec ) = 0.22655E-05
  weight for this iteration     100.00

 eigenvalues of (default mixing * dielectric matrix)
  average eigenvalue GAMMA=   1.8179
  3.0264  2.7505  2.5570  2.3193  1.8204  0.8265  1.0949  1.0093  0.9567

 Free energy of the ion-electron system (eV)
  ---------------------------------------------------
  -Hartree energ DENC   =        -0.04300511
  -V(xc)+E(xc)   XCENC  =         0.00049138
  PAW double counting   =         0.04017247       -0.04255266
  entropy T*S    EENTRO =         0.00000000
  eigenvalues    EBANDS =        -0.63080866
  ---------------------------------------------------
  free energy    TOTEN  =        -0.67570257 eV

  energy without entropy =       -0.67570257


----------------------------------------- Iteration    3(  12)  ---------------------------------------


   POT+DIJ:  cpu time    0.1323: real time    0.1394
    HAMIL1:  cpu time    0.8444: real time    0.8650
    LRDIAG:  cpu time    0.0936: real time    0.1015
    LRDIIS:  cpu time    1.8441: real time    1.8953
    LRDIAG:  cpu time    0.0823: real time    0.0899
    MIXING:  cpu time    0.0017: real time    0.0017
    --------------------------------------------
      LOOP:  cpu time    3.5311: real time    3.6392

 Broyden mixing:
  rms(total) = 0.24988E-06    rms(broyden)= 0.24985E-06
  rms(prec ) = 0.38846E-06
  weight for this iteration     100.00

 eigenvalues of (default mixing * dielectric matrix)
  average eigenvalue GAMMA=   1.7846
  3.1110  2.7825  2.4032  2.4032  1.8702  1.3494  0.8266  1.1240  1.0073  0.9683

 Free energy of the ion-electron system (eV)
  ---------------------------------------------------
  -Hartree energ DENC   =        -0.04300502
  -V(xc)+E(xc)   XCENC  =         0.00049138
  PAW double counting   =         0.04017316       -0.04255326
  entropy T*S    EENTRO =         0.00000000
  eigenvalues    EBANDS =        -0.63080859
  ---------------------------------------------------
  free energy    TOTEN  =        -0.67570234 eV

  energy without entropy =       -0.67570234


------------------------ aborting loop because EDIFF is reached ----------------------------------------


 change of polarisation eV/A/(eV/A) component  3 :    -0.159    -0.025     1.283
 dielectric tensor                  component  3 :    -0.581    -0.093     5.674


--------------------------------------------------------------------------------------------------------


    FORLOC:  cpu time    0.0056: real time    0.0056
    FORNL :  cpu time    0.5389: real time    0.5548
    STRESS:  cpu time    1.7607: real time    1.8187
    FORCOR:  cpu time    0.0658: real time    0.0659
    OFIELD:  cpu time    0.0002: real time    0.0002
    FORLOC:  cpu time    0.0055: real time    0.0055
    FORNL :  cpu time    0.5391: real time    0.5534
    STRESS:  cpu time    1.7666: real time    1.8258
    FORCOR:  cpu time    0.0658: real time    0.0660
    OFIELD:  cpu time    0.0002: real time    0.0002
    FORNLD:  cpu time    1.3046: real time    1.3990

 PIEZOELECTRIC TENSOR FIELD DIRECTION 3  (e Angst)
 -----------------------------------------------------------------------------
     1.19424  0.00000 -0.00000           (  0.04716  0.00000 -0.00000)
    -0.00000  1.19424  0.00000           (  0.00000  0.04716  0.00000)
    -0.00000 -0.00000 -2.41932           ( -0.00000  0.00000 -0.11208)

 PIEZOELECTRIC TENSOR FIELD DIRECTION 3  (C/m^2)
 -----------------------------------------------------------------------------
     0.38505  0.00000 -0.00000
    -0.00000  0.38505  0.00000
    -0.00000 -0.00000 -0.78004


      POSITION         DIRECTION 3           BORN EFFECTIVE CHARGE    (rigid.aug.   ionic)
 -----------------------------------------------------------------------------------------
      0.95120      1.64753      0.00476     0.00000  0.00000  2.17953 ( -8.11468 12.00000)
      1.90240      0.00000      2.64717    -0.00000  0.00000  2.17953 ( -8.11468 12.00000)
      0.95120      1.64753      2.01669    -0.00000 -0.00000 -2.18502 ( -0.62359  6.00000)
      1.90240      0.00000      4.65910     0.00000  0.00000 -2.18502 ( -0.62359  6.00000)
 -----------------------------------------------------------------------------------------
    total drift (improves with k-points):  -0.00000  0.00000 -0.01098




--------------------------------------------------------------------------------------------------------


  LATTYP: Found a hexagonal cell.
 ALAT       =     3.2950581330
 C/A-ratio  =     1.6038637181
  
  Lattice vectors:
  
 A1 = (   2.8536040501,  -1.6475290665,   0.0000000000)
 A2 = (   0.0000000000,   3.2950581330,   0.0000000000)
 A3 = (   0.0000000000,   0.0000000000,   5.2848241887)


Analysis of symmetry for initial positions (statically):
=====================================================================
 Subroutine PRICEL returns:
 Original cell was already a primitive cell.
 

 Routine SETGRP: Setting up the symmetry group for a 
 hexagonal supercell.


 Subroutine GETGRP returns: Found 12 space group operations
 (whereof  6 operations were pure point group operations)
 out of a pool of 24 trial point group operations.


The static configuration has the point symmetry C_3v.
 The point group associated with its full space group is C_6v.


Analysis of symmetry for dynamics (positions and initial velocities):
=====================================================================
 Subroutine PRICEL returns:
 Original cell was already a primitive cell.
 

 Routine SETGRP: Setting up the symmetry group for a 
 hexagonal supercell.


 Subroutine GETGRP returns: Found 12 space group operations
 (whereof  6 operations were pure point group operations)
 out of a pool of 24 trial point group operations.


The dynamic configuration has the point symmetry C_3v.
 The point group associated with its full space group is C_6v.


 Subroutine INISYM returns: Found 12 space group operations
 (whereof  6 operations are pure point group operations),
 and found     1 'primitive' translations



 MACROSCOPIC STATIC DIELECTRIC TENSOR (including local field effects in DFT)
 ------------------------------------------------------
           5.739330     0.000000     0.000000
           0.000000     5.739330    -0.000000
           0.000000     0.000000     5.673771
 ------------------------------------------------------



--------------------------------------------------------------------------------------------------------


  LATTYP: Found a hexagonal cell.
 ALAT       =     3.2950581330
 C/A-ratio  =     1.6038637181
  
  Lattice vectors:
  
 A1 = (   2.8536040501,  -1.6475290665,   0.0000000000)
 A2 = (   0.0000000000,   3.2950581330,   0.0000000000)
 A3 = (   0.0000000000,   0.0000000000,   5.2848241887)


Analysis of symmetry for initial positions (statically):
=====================================================================
 Subroutine PRICEL returns:
 Original cell was already a primitive cell.
 

 Routine SETGRP: Setting up the symmetry group for a 
 hexagonal supercell.


 Subroutine GETGRP returns: Found 12 space group operations
 (whereof  6 operations were pure point group operations)
 out of a pool of 24 trial point group operations.


The static configuration has the point symmetry C_3v.
 The point group associated with its full space group is C_6v.


Analysis of symmetry for dynamics (positions and initial velocities):
=====================================================================
 Subroutine PRICEL returns:
 Original cell was already a primitive cell.
 

 Routine SETGRP: Setting up the symmetry group for a 
 hexagonal supercell.


 Subroutine GETGRP returns: Found 12 space group operations
 (whereof  6 operations were pure point group operations)
 out of a pool of 24 trial point group operations.


The dynamic configuration has the point symmetry C_3v.
 The point group associated with its full space group is C_6v.


 Subroutine INISYM returns: Found 12 space group operations
 (whereof  6 operations are pure point group operations),
 and found     1 'primitive' translations



--------------------------------------------------------------------------------------------------------




 MACROSCOPIC STATIC DIELECTRIC TENSOR (including local field effects in DFT)
 ------------------------------------------------------
           5.739330     0.000000     0.000000
           0.000000     5.739330    -0.000000
           0.000000     0.000000     5.673771
 ------------------------------------------------------


 PIEZOELECTRIC TENSOR  for field in x, y, z        (e  Angst)
          XX          YY          ZZ          XY          YZ          ZX
  --------------------------------------------------------------------------------
  x    -0.00026    -0.00004     0.00000    -0.00000    -0.00000     1.24737
  y    -0.00005    -0.00021     0.00002    -0.00000     1.24749    -0.00000
  z     1.19424     1.19424    -2.41932    -0.00000    -0.00000    -0.00000

 PIEZOELECTRIC TENSOR  for field in x, y, z        (C/m^2)
          XX          YY          ZZ          XY          YZ          ZX
  --------------------------------------------------------------------------------
  x     0.00000    -0.00000     0.00000     0.00000     0.00000     0.40220
  y    -0.00000     0.00000     0.00000     0.00000     0.40220     0.00000
  z     0.38505     0.38505    -0.78004    -0.00000     0.00000     0.00000

 BORN EFFECTIVE CHARGES (in e, cummulative output)
 -------------------------------------------------
 ion    1
    1     2.13760     0.00000    -0.00003
    2     0.00005     2.13765    -0.00003
    3     0.00000    -0.00000     2.18228
 ion    2
    1     2.13767     0.00000    -0.00004
    2    -0.00005     2.13765    -0.00003
    3    -0.00000     0.00000     2.18228
 ion    3
    1    -2.13762    -0.00000     0.00005
    2     0.00002    -2.13765     0.00003
    3    -0.00000    -0.00000    -2.18228
 ion    4
    1    -2.13765     0.00000     0.00003
    2    -0.00002    -2.13765     0.00003
    3     0.00000     0.00000    -2.18228


--------------------------------------------------------------------------------------------------------


     LOOP+:  cpu time  659.5898: real time  677.3961
    4ORBIT:  cpu time    0.0000: real time    0.0000

 total amount of memory used by VASP MPI-rank0    79839. kBytes
=======================================================================

   base      :      30000. kBytes
   nonl-proj :      31517. kBytes
   fftplans  :       2392. kBytes
   grid      :       5080. kBytes
   one-center:         62. kBytes
   wavefun   :      10788. kBytes

  
  
 General timing and accounting informations for this job:
 ========================================================
  
                  Total CPU time used (sec):      660.479
                            User time (sec):      658.343
                          System time (sec):        2.136
                         Elapsed time (sec):      678.686
  
                   Maximum memory used (kb):      291572.
                   Average memory used (kb):           0.
  
                          Minor page faults:        25764
                          Major page faults:           73
                 Voluntary context switches:          226
