phonopy:
  version: 1.11.10
  configuration:
    dim: "1 1 1"
    create_displacements: ".true."

supercell_matrix:
- [   1,   0,   0 ]
- [   0,   1,   0 ]
- [   0,   0,   1 ]

primitive_cell:
  lattice:
  - [     2.853604050144091,    -1.647529066511296,     0.000000000000000 ] # a
  - [     0.000000000000000,     3.295058133022593,     0.000000000000000 ] # b
  - [     0.000000000000000,     0.000000000000000,     5.284824188734725 ] # c
  points:
  - symbol: Zn # 1
    coordinates: [  0.333333333333336,  0.666666666666664,  0.000900350027260 ]
    mass: 65.380000
  - symbol: Zn # 2
    coordinates: [  0.666666666666664,  0.333333333333336,  0.500900350027260 ]
    mass: 65.380000
  - symbol: O  # 3
    coordinates: [  0.333333333333336,  0.666666666666664,  0.381599649972740 ]
    mass: 15.999400
  - symbol: O  # 4
    coordinates: [  0.666666666666664,  0.333333333333336,  0.881599649972740 ]
    mass: 15.999400
  reciprocal_lattice: # without 2pi
  - [     0.350434041453476,     0.000000000000000,     0.000000000000000 ] # a*
  - [     0.175217020726738,     0.303484782249559,     0.000000000000000 ] # b*
  - [     0.000000000000000,     0.000000000000000,     0.189221053395045 ] # c*

unit_cell:
  lattice:
  - [     2.853604050144091,    -1.647529066511296,     0.000000000000000 ] # a
  - [     0.000000000000000,     3.295058133022593,     0.000000000000000 ] # b
  - [     0.000000000000000,     0.000000000000000,     5.284824188734725 ] # c
  points:
  - symbol: Zn # 1
    coordinates: [  0.333333333333336,  0.666666666666664,  0.000900350027260 ]
    mass: 65.380000
    reduced_to: 1
  - symbol: Zn # 2
    coordinates: [  0.666666666666664,  0.333333333333336,  0.500900350027260 ]
    mass: 65.380000
    reduced_to: 2
  - symbol: O  # 3
    coordinates: [  0.333333333333336,  0.666666666666664,  0.381599649972740 ]
    mass: 15.999400
    reduced_to: 3
  - symbol: O  # 4
    coordinates: [  0.666666666666664,  0.333333333333336,  0.881599649972740 ]
    mass: 15.999400
    reduced_to: 4

supercell:
  lattice:
  - [     2.853604050144091,    -1.647529066511296,     0.000000000000000 ] # a
  - [     0.000000000000000,     3.295058133022593,     0.000000000000000 ] # b
  - [     0.000000000000000,     0.000000000000000,     5.284824188734725 ] # c
  points:
  - symbol: Zn # 1
    coordinates: [  0.333333333333336,  0.666666666666664,  0.000900350027260 ]
    mass: 65.380000
    reduced_to: 1
  - symbol: Zn # 2
    coordinates: [  0.666666666666664,  0.333333333333336,  0.500900350027260 ]
    mass: 65.380000
    reduced_to: 2
  - symbol: O  # 3
    coordinates: [  0.333333333333336,  0.666666666666664,  0.381599649972740 ]
    mass: 15.999400
    reduced_to: 3
  - symbol: O  # 4
    coordinates: [  0.666666666666664,  0.333333333333336,  0.881599649972740 ]
    mass: 15.999400
    reduced_to: 4
