nqpoint: 1      
natom:   4      
reciprocal_lattice:
- [   0.35043404,   0.00000000,   0.00000000 ] # a*
- [   0.17521702,   0.30348478,   0.00000000 ] # b*
- [   0.00000000,   0.00000000,   0.18922105 ] # c*
phonon:
- q-position: [    0.0000000,    0.0000000,    0.0000000 ]
  dynamical_matrix:
  - [    0.1046852687,   -0.0000000000,   -0.0000000000,    0.0000000000,   -0.0000000000,    0.0000000000,   -0.0043292084,    0.0000000000,   -0.0000000000,    0.0000000000,   -0.0000000000,    0.0000000000,   -0.0037418968,    0.0000000000,    0.0000000000,    0.0000000000,    0.0000000000,    0.0000000000,   -0.1987551195,    0.0000000000,   -0.0000000000,    0.0000000000,   -0.0000000000,    0.0000000000 ]
  - [   -0.0000000000,   -0.0000000000,    0.1046852687,   -0.0000000000,    0.0000000000,    0.0000000000,   -0.0000000000,    0.0000000000,   -0.0043292084,    0.0000000000,   -0.0000000000,    0.0000000000,    0.0000000000,    0.0000000000,   -0.0037418968,    0.0000000000,   -0.0000000000,    0.0000000000,   -0.0000000000,    0.0000000000,   -0.1987551195,    0.0000000000,   -0.0000000000,    0.0000000000 ]
  - [   -0.0000000000,   -0.0000000000,    0.0000000000,   -0.0000000000,    0.1607122301,   -0.0000000000,    0.0000000000,    0.0000000000,   -0.0000000000,    0.0000000000,   -0.0713855583,    0.0000000000,    0.0000000000,    0.0000000000,   -0.0000000000,    0.0000000000,   -0.1321506952,    0.0000000000,    0.0000000000,    0.0000000000,    0.0000000000,    0.0000000000,   -0.0477157100,    0.0000000000 ]
  - [   -0.0043292084,   -0.0000000000,   -0.0000000000,   -0.0000000000,    0.0000000000,   -0.0000000000,    0.1046852687,   -0.0000000000,    0.0000000000,    0.0000000000,   -0.0000000000,    0.0000000000,   -0.1987551195,    0.0000000000,   -0.0000000000,    0.0000000000,    0.0000000000,    0.0000000000,   -0.0037418968,    0.0000000000,   -0.0000000000,    0.0000000000,    0.0000000000,    0.0000000000 ]
  - [   -0.0000000000,   -0.0000000000,   -0.0043292084,   -0.0000000000,   -0.0000000000,   -0.0000000000,    0.0000000000,   -0.0000000000,    0.1046852687,   -0.0000000000,    0.0000000000,    0.0000000000,   -0.0000000000,    0.0000000000,   -0.1987551195,    0.0000000000,    0.0000000000,    0.0000000000,   -0.0000000000,    0.0000000000,   -0.0037418968,    0.0000000000,   -0.0000000000,    0.0000000000 ]
  - [   -0.0000000000,   -0.0000000000,   -0.0000000000,   -0.0000000000,   -0.0713855583,   -0.0000000000,   -0.0000000000,   -0.0000000000,    0.0000000000,   -0.0000000000,    0.1607122301,   -0.0000000000,   -0.0000000000,    0.0000000000,   -0.0000000000,    0.0000000000,   -0.0477157100,    0.0000000000,    0.0000000000,    0.0000000000,   -0.0000000000,    0.0000000000,   -0.1321506952,    0.0000000000 ]
  - [   -0.0037418968,   -0.0000000000,    0.0000000000,   -0.0000000000,    0.0000000000,   -0.0000000000,   -0.1987551195,   -0.0000000000,   -0.0000000000,   -0.0000000000,   -0.0000000000,   -0.0000000000,    0.4622584349,   -0.0000000000,   -0.0000000000,    0.0000000000,   -0.0000000000,    0.0000000000,   -0.0536642175,    0.0000000000,   -0.0000000000,    0.0000000000,   -0.0000000000,    0.0000000000 ]
  - [    0.0000000000,   -0.0000000000,   -0.0037418968,   -0.0000000000,   -0.0000000000,   -0.0000000000,   -0.0000000000,   -0.0000000000,   -0.1987551195,   -0.0000000000,   -0.0000000000,   -0.0000000000,   -0.0000000000,   -0.0000000000,    0.4622584349,   -0.0000000000,    0.0000000000,    0.0000000000,   -0.0000000000,    0.0000000000,   -0.0536642175,    0.0000000000,   -0.0000000000,    0.0000000000 ]
  - [    0.0000000000,   -0.0000000000,   -0.0000000000,   -0.0000000000,   -0.1321506952,   -0.0000000000,    0.0000000000,   -0.0000000000,    0.0000000000,   -0.0000000000,   -0.0477157100,   -0.0000000000,   -0.0000000000,   -0.0000000000,    0.0000000000,   -0.0000000000,    0.6531368131,   -0.0000000000,    0.0000000000,    0.0000000000,   -0.0000000000,    0.0000000000,   -0.2909670254,    0.0000000000 ]
  - [   -0.1987551195,   -0.0000000000,   -0.0000000000,   -0.0000000000,    0.0000000000,   -0.0000000000,   -0.0037418968,   -0.0000000000,   -0.0000000000,   -0.0000000000,    0.0000000000,   -0.0000000000,   -0.0536642175,   -0.0000000000,   -0.0000000000,   -0.0000000000,    0.0000000000,   -0.0000000000,    0.4622584349,   -0.0000000000,    0.0000000000,    0.0000000000,   -0.0000000000,    0.0000000000 ]
  - [   -0.0000000000,   -0.0000000000,   -0.1987551195,   -0.0000000000,    0.0000000000,   -0.0000000000,   -0.0000000000,   -0.0000000000,   -0.0037418968,   -0.0000000000,   -0.0000000000,   -0.0000000000,   -0.0000000000,   -0.0000000000,   -0.0536642175,   -0.0000000000,   -0.0000000000,   -0.0000000000,    0.0000000000,   -0.0000000000,    0.4622584349,   -0.0000000000,    0.0000000000,    0.0000000000 ]
  - [   -0.0000000000,   -0.0000000000,   -0.0000000000,   -0.0000000000,   -0.0477157100,   -0.0000000000,    0.0000000000,   -0.0000000000,   -0.0000000000,   -0.0000000000,   -0.1321506952,   -0.0000000000,   -0.0000000000,   -0.0000000000,   -0.0000000000,   -0.0000000000,   -0.2909670254,   -0.0000000000,   -0.0000000000,   -0.0000000000,    0.0000000000,   -0.0000000000,    0.6531368131,   -0.0000000000 ]
  band:
  - # 1
    frequency:   -0.0164836286
  - # 2
    frequency:   -0.0080721092
  - # 3
    frequency:   -0.0080721092
  - # 4
    frequency:    2.7367843710
  - # 5
    frequency:    2.7367843710
  - # 6
    frequency:    7.3696031015
  - # 7
    frequency:   10.5045737644
  - # 8
    frequency:   11.1529182148
  - # 9
    frequency:   11.1529182148
  - # 10
    frequency:   12.0517523099
  - # 11
    frequency:   12.0517523099
  - # 12
    frequency:   15.2693416154

