
.Version 7.8.2 of ABINIT 
.(MPI version, prepared for a x86_64_linux_intel14.0 computer) 

.Copyright (C) 1998-2014 ABINIT group . 
 ABINIT comes with ABSOLUTELY NO WARRANTY.
 It is free software, and you are welcome to redistribute it
 under certain conditions (GNU General Public License,
 see ~abinit/COPYING or http://www.gnu.org/copyleft/gpl.txt).

 ABINIT is a project of the Universite Catholique de Louvain,
 Corning Inc. and other collaborators, see ~abinit/doc/developers/contributors.txt .
 Please read ~abinit/doc/users/acknowledgments.html for suggested
 acknowledgments of the ABINIT effort.
 For more information, see http://www.abinit.org .

.Starting date : Fri 13 May 2016.
- ( at 18h45 )
  
- input  file    -> AlAs.in
- output file    -> AlAs.out
- root for input  files -> AlAs_i
- root for output files -> AlAs_o
 
 
 DATASET    1 : space group F-4 3 m (#216); Bravais cF (face-center cubic)
================================================================================
 Values of the parameters that define the memory need for DATASET  1.
   intxc =         0  ionmov =         0    iscf =         5 xclevel =         1
  lmnmax =         3   lnmax =         3   mband =         4  mffmem =         1
P  mgfft =        12   mkmem =         5 mpssoang=         3     mpw =        77
  mqgrid =      3001   natom =         2    nfft =      1728    nkpt =        10
  nloalg =         4  nspden =         1 nspinor =         1  nsppol =         1
    nsym =        24  n1xccc =      2501  ntypat =         2  occopt =         1
================================================================================
P This job should need less than                       1.355 Mbytes of memory.
  Rough estimation (10% accuracy) of disk space for files :
_ WF disk file :      0.049 Mbytes ; DEN or POT disk file :      0.015 Mbytes.
================================================================================
 
 
 DATASET    2 : space group F-4 3 m (#216); Bravais cF (face-center cubic)
================================================================================
 Values of the parameters that define the memory need for DATASET  2 (RF).
   intxc =         0    iscf =        -3 xclevel =         1  lmnmax =         3
   lnmax =         3   mband =         4  mffmem =         1   mgfft =        12
P  mkmem =        64  mkqmem =        64  mk1mem =        64 mpssoang=         3
     mpw =        77  mqgrid =      3001   natom =         2    nfft =      1728
    nkpt =       128  nloalg =         4  nspden =         1 nspinor =         1
  nsppol =         1    nsym =        24  n1xccc =      2501  ntypat =         2
  occopt =         1
================================================================================
P This job should need less than                       2.334 Mbytes of memory.
  Rough estimation (10% accuracy) of disk space for files :
_ WF disk file :      0.604 Mbytes ; DEN or POT disk file :      0.015 Mbytes.
================================================================================
 
 
 DATASET    3 : space group F-4 3 m (#216); Bravais cF (face-center cubic)
================================================================================
 Values of the parameters that define the memory need for DATASET  3 (RF).
   intxc =         0    iscf =         5 xclevel =         1  lmnmax =         3
   lnmax =         3   mband =         4  mffmem =         1   mgfft =        12
P  mkmem =        64  mkqmem =        64  mk1mem =        64 mpssoang=         3
     mpw =        77  mqgrid =      3001   natom =         2    nfft =      1728
    nkpt =       128  nloalg =         4  nspden =         1 nspinor =         1
  nsppol =         1    nsym =        24  n1xccc =      2501  ntypat =         2
  occopt =         1
================================================================================
P This job should need less than                       2.466 Mbytes of memory.
  Rough estimation (10% accuracy) of disk space for files :
_ WF disk file :      0.604 Mbytes ; DEN or POT disk file :      0.015 Mbytes.
================================================================================
 
--------------------------------------------------------------------------------
------------- Echo of variables that govern the present computation ------------
--------------------------------------------------------------------------------
-
- outvars: echo of selected default values                                      
-   accesswff0 =  0 , fftalg0 =312 , wfoptalg0 =  0
-
- outvars: echo of global parameters not present in the input file              
-  max_nthreads =    0
-
 -outvars: echo values of preprocessed input variables --------
            acell      1.0610000000E+01  1.0610000000E+01  1.0610000000E+01 Bohr
              amu      2.69815390E+01  7.49215900E+01
           diemac      9.00000000E+00
             ecut      3.00000000E+00 Hartree
-          fftalg         312
           getddk1          0
           getddk2          0
           getddk3          2
           getwfk1          0
           getwfk2          1
           getwfk3          1
             iscf1          5
             iscf2         -3
             iscf3          5
           jdtset        1    2    3
              kpt1    -1.25000000E-01 -2.50000000E-01  0.00000000E+00
                      -1.25000000E-01  5.00000000E-01  0.00000000E+00
                      -2.50000000E-01 -3.75000000E-01  0.00000000E+00
                      -1.25000000E-01 -3.75000000E-01  1.25000000E-01
                      -1.25000000E-01  2.50000000E-01  0.00000000E+00
                      -2.50000000E-01  3.75000000E-01  0.00000000E+00
                      -3.75000000E-01  5.00000000E-01  0.00000000E+00
                      -2.50000000E-01  5.00000000E-01  1.25000000E-01
                      -1.25000000E-01  0.00000000E+00  0.00000000E+00
                      -3.75000000E-01  0.00000000E+00  0.00000000E+00
              kpt2    -1.25000000E-01 -2.50000000E-01  0.00000000E+00
                      -2.50000000E-01 -1.25000000E-01  0.00000000E+00
                      -1.25000000E-01 -1.25000000E-01  1.25000000E-01
                      -1.25000000E-01  5.00000000E-01  0.00000000E+00
                      -2.50000000E-01 -3.75000000E-01  0.00000000E+00
                      -1.25000000E-01 -3.75000000E-01  1.25000000E-01
                      -3.75000000E-01 -2.50000000E-01  0.00000000E+00
                      -2.50000000E-01 -2.50000000E-01  1.25000000E-01
                      -1.25000000E-01 -2.50000000E-01  2.50000000E-01
                       5.00000000E-01 -1.25000000E-01  0.00000000E+00
                      -3.75000000E-01 -1.25000000E-01  1.25000000E-01
                      -2.50000000E-01 -1.25000000E-01  2.50000000E-01
                      -1.25000000E-01 -1.25000000E-01  3.75000000E-01
                      -1.25000000E-01  2.50000000E-01  0.00000000E+00
                      -2.50000000E-01  3.75000000E-01  0.00000000E+00
                      -1.25000000E-01  3.75000000E-01  1.25000000E-01
                      -3.75000000E-01  5.00000000E-01  0.00000000E+00
                      -2.50000000E-01  5.00000000E-01  1.25000000E-01
                      -1.25000000E-01  5.00000000E-01  2.50000000E-01
                       5.00000000E-01 -3.75000000E-01  0.00000000E+00
                      -3.75000000E-01 -3.75000000E-01  1.25000000E-01
                      -2.50000000E-01 -3.75000000E-01  2.50000000E-01
                      -1.25000000E-01 -3.75000000E-01  3.75000000E-01
                       3.75000000E-01 -2.50000000E-01  0.00000000E+00
                       5.00000000E-01 -2.50000000E-01  1.25000000E-01
                      -3.75000000E-01 -2.50000000E-01  2.50000000E-01
                      -2.50000000E-01 -2.50000000E-01  3.75000000E-01
                      -1.25000000E-01 -2.50000000E-01  5.00000000E-01
                       2.50000000E-01 -1.25000000E-01  0.00000000E+00
                       3.75000000E-01 -1.25000000E-01  1.25000000E-01
                       5.00000000E-01 -1.25000000E-01  2.50000000E-01
                      -3.75000000E-01 -1.25000000E-01  3.75000000E-01
                      -2.50000000E-01 -1.25000000E-01  5.00000000E-01
                      -1.25000000E-01 -1.25000000E-01 -3.75000000E-01
                      -1.25000000E-01  0.00000000E+00  0.00000000E+00
                      -1.25000000E-01  1.25000000E-01  1.25000000E-01
                      -2.50000000E-01  2.50000000E-01  1.25000000E-01
                      -1.25000000E-01  2.50000000E-01  2.50000000E-01
                      -3.75000000E-01  3.75000000E-01  1.25000000E-01
                      -2.50000000E-01  3.75000000E-01  2.50000000E-01
                      -1.25000000E-01  3.75000000E-01  3.75000000E-01
                       5.00000000E-01  5.00000000E-01  1.25000000E-01
                      -3.75000000E-01  5.00000000E-01  2.50000000E-01
                      -2.50000000E-01  5.00000000E-01  3.75000000E-01
                      -1.25000000E-01  5.00000000E-01  5.00000000E-01
                       3.75000000E-01 -3.75000000E-01  1.25000000E-01
                       5.00000000E-01 -3.75000000E-01  2.50000000E-01
                      -3.75000000E-01 -3.75000000E-01  3.75000000E-01
                      -2.50000000E-01 -3.75000000E-01  5.00000000E-01
                      -1.25000000E-01 -3.75000000E-01 -3.75000000E-01
              kpt3    -1.25000000E-01 -2.50000000E-01  0.00000000E+00
                      -2.50000000E-01 -1.25000000E-01  0.00000000E+00
                      -1.25000000E-01 -1.25000000E-01  1.25000000E-01
                      -1.25000000E-01  5.00000000E-01  0.00000000E+00
                      -2.50000000E-01 -3.75000000E-01  0.00000000E+00
                      -1.25000000E-01 -3.75000000E-01  1.25000000E-01
                      -3.75000000E-01 -2.50000000E-01  0.00000000E+00
                      -2.50000000E-01 -2.50000000E-01  1.25000000E-01
                      -1.25000000E-01 -2.50000000E-01  2.50000000E-01
                       5.00000000E-01 -1.25000000E-01  0.00000000E+00
                      -3.75000000E-01 -1.25000000E-01  1.25000000E-01
                      -2.50000000E-01 -1.25000000E-01  2.50000000E-01
                      -1.25000000E-01 -1.25000000E-01  3.75000000E-01
                      -1.25000000E-01  2.50000000E-01  0.00000000E+00
                      -2.50000000E-01  3.75000000E-01  0.00000000E+00
                      -1.25000000E-01  3.75000000E-01  1.25000000E-01
                      -3.75000000E-01  5.00000000E-01  0.00000000E+00
                      -2.50000000E-01  5.00000000E-01  1.25000000E-01
                      -1.25000000E-01  5.00000000E-01  2.50000000E-01
                       5.00000000E-01 -3.75000000E-01  0.00000000E+00
                      -3.75000000E-01 -3.75000000E-01  1.25000000E-01
                      -2.50000000E-01 -3.75000000E-01  2.50000000E-01
                      -1.25000000E-01 -3.75000000E-01  3.75000000E-01
                       3.75000000E-01 -2.50000000E-01  0.00000000E+00
                       5.00000000E-01 -2.50000000E-01  1.25000000E-01
                      -3.75000000E-01 -2.50000000E-01  2.50000000E-01
                      -2.50000000E-01 -2.50000000E-01  3.75000000E-01
                      -1.25000000E-01 -2.50000000E-01  5.00000000E-01
                       2.50000000E-01 -1.25000000E-01  0.00000000E+00
                       3.75000000E-01 -1.25000000E-01  1.25000000E-01
                       5.00000000E-01 -1.25000000E-01  2.50000000E-01
                      -3.75000000E-01 -1.25000000E-01  3.75000000E-01
                      -2.50000000E-01 -1.25000000E-01  5.00000000E-01
                      -1.25000000E-01 -1.25000000E-01 -3.75000000E-01
                      -1.25000000E-01  0.00000000E+00  0.00000000E+00
                      -1.25000000E-01  1.25000000E-01  1.25000000E-01
                      -2.50000000E-01  2.50000000E-01  1.25000000E-01
                      -1.25000000E-01  2.50000000E-01  2.50000000E-01
                      -3.75000000E-01  3.75000000E-01  1.25000000E-01
                      -2.50000000E-01  3.75000000E-01  2.50000000E-01
                      -1.25000000E-01  3.75000000E-01  3.75000000E-01
                       5.00000000E-01  5.00000000E-01  1.25000000E-01
                      -3.75000000E-01  5.00000000E-01  2.50000000E-01
                      -2.50000000E-01  5.00000000E-01  3.75000000E-01
                      -1.25000000E-01  5.00000000E-01  5.00000000E-01
                       3.75000000E-01 -3.75000000E-01  1.25000000E-01
                       5.00000000E-01 -3.75000000E-01  2.50000000E-01
                      -3.75000000E-01 -3.75000000E-01  3.75000000E-01
                      -2.50000000E-01 -3.75000000E-01  5.00000000E-01
                      -1.25000000E-01 -3.75000000E-01 -3.75000000E-01
                       outvar_i_n : Printing only first  50 k-points.
           kptopt1          1
           kptopt2          2
           kptopt3          2
         kptrlatt        4   -4    4     -4    4    4     -4   -4    4
          kptrlen      4.24400000E+01
P           mkmem1          5
P           mkmem2         64
P           mkmem3         64
P          mkqmem1          5
P          mkqmem2         64
P          mkqmem3         64
P          mk1mem1          5
P          mk1mem2         64
P          mk1mem3         64
            natom           2
            nband1          4
            nband2          4
            nband3          4
           ndtset           3
            ngfft          12      12      12
             nkpt1         10
             nkpt2        128
             nkpt3        128
             nqpt1          0
             nqpt2          1
             nqpt3          1
            nstep          25
             nsym          24
           ntypat           2
              occ1     2.000000  2.000000  2.000000  2.000000
              occ2     2.000000  2.000000  2.000000  2.000000
              occ3     2.000000  2.000000  2.000000  2.000000
        optdriver1          0
        optdriver2          1
        optdriver3          1
        optforces           1
          rfatpol           1       2
            rfdir           1       1       1
           rfelfd1          0
           rfelfd2          2
           rfelfd3          3
           rfphon1          0
           rfphon2          0
           rfphon3          1
            rprim      0.0000000000E+00  5.0000000000E-01  5.0000000000E-01
                       5.0000000000E-01  0.0000000000E+00  5.0000000000E-01
                       5.0000000000E-01  5.0000000000E-01  0.0000000000E+00
           shiftk      5.00000000E-01  5.00000000E-01  5.00000000E-01
          spgroup         216
           symrel      1  0  0   0  1  0   0  0  1       0 -1  1   0 -1  0   1 -1  0
                      -1  0  0  -1  0  1  -1  1  0       0  1 -1   1  0 -1   0  0 -1
                      -1  0  0  -1  1  0  -1  0  1       0 -1  1   1 -1  0   0 -1  0
                       1  0  0   0  0  1   0  1  0       0  1 -1   0  0 -1   1  0 -1
                      -1  0  1  -1  1  0  -1  0  0       0 -1  0   1 -1  0   0 -1  1
                       1  0 -1   0  0 -1   0  1 -1       0  1  0   0  0  1   1  0  0
                       1  0 -1   0  1 -1   0  0 -1       0 -1  0   0 -1  1   1 -1  0
                      -1  0  1  -1  0  0  -1  1  0       0  1  0   1  0  0   0  0  1
                       0  0 -1   0  1 -1   1  0 -1       1 -1  0   0 -1  1   0 -1  0
                       0  0  1   1  0  0   0  1  0      -1  1  0  -1  0  0  -1  0  1
                       0  0  1   0  1  0   1  0  0       1 -1  0   0 -1  0   0 -1  1
                       0  0 -1   1  0 -1   0  1 -1      -1  1  0  -1  0  1  -1  0  0
           tolvrs1     1.00000000E-18
           tolvrs2     0.00000000E+00
           tolvrs3     1.00000000E-08
           tolwfr1     0.00000000E+00
           tolwfr2     1.00000000E-22
           tolwfr3     0.00000000E+00
            typat      1  2
              wtk1       0.09375    0.09375    0.09375    0.18750    0.09375    0.09375
                         0.09375    0.18750    0.03125    0.03125
              wtk2       0.00781    0.00781    0.00781    0.00781    0.00781    0.00781
                         0.00781    0.00781    0.00781    0.00781    0.00781    0.00781
                         0.00781    0.00781    0.00781    0.00781    0.00781    0.00781
                         0.00781    0.00781    0.00781    0.00781    0.00781    0.00781
                         0.00781    0.00781    0.00781    0.00781    0.00781    0.00781
                         0.00781    0.00781    0.00781    0.00781    0.00781    0.00781
                         0.00781    0.00781    0.00781    0.00781    0.00781    0.00781
                         0.00781    0.00781    0.00781    0.00781    0.00781    0.00781
                         0.00781    0.00781
              wtk3       0.00781    0.00781    0.00781    0.00781    0.00781    0.00781
                         0.00781    0.00781    0.00781    0.00781    0.00781    0.00781
                         0.00781    0.00781    0.00781    0.00781    0.00781    0.00781
                         0.00781    0.00781    0.00781    0.00781    0.00781    0.00781
                         0.00781    0.00781    0.00781    0.00781    0.00781    0.00781
                         0.00781    0.00781    0.00781    0.00781    0.00781    0.00781
                         0.00781    0.00781    0.00781    0.00781    0.00781    0.00781
                         0.00781    0.00781    0.00781    0.00781    0.00781    0.00781
                         0.00781    0.00781
                       outvars : Printing only first  50 k-points.
           xangst      0.0000000000E+00  0.0000000000E+00  0.0000000000E+00
                       1.4036425458E+00  1.4036425458E+00  1.4036425458E+00
            xcart      0.0000000000E+00  0.0000000000E+00  0.0000000000E+00
                       2.6525000000E+00  2.6525000000E+00  2.6525000000E+00
             xred      0.0000000000E+00  0.0000000000E+00  0.0000000000E+00
                       2.5000000000E-01  2.5000000000E-01  2.5000000000E-01
            znucl       13.00000   33.00000
 
================================================================================
 
 chkinp: Checking input parameters for consistency, jdtset=   1.
 
 chkinp: Checking input parameters for consistency, jdtset=   2.
 
 chkinp: Checking input parameters for consistency, jdtset=   3.
 
================================================================================
== DATASET  1 ==================================================================
-   nproc =    2
 
 Exchange-correlation functional for the present dataset will be:
  LDA: new Teter (4/93) with spin-polarized option - ixc=1
 Citation for XC functional:
  S. Goedecker, M. Teter, J. Huetter, PRB 54, 1703 (1996)
 
 Real(R)+Recip(G) space primitive vectors, cartesian coordinates (Bohr,Bohr^-1):
 R(1)=  0.0000000  5.3050000  5.3050000  G(1)= -0.0942507  0.0942507  0.0942507
 R(2)=  5.3050000  0.0000000  5.3050000  G(2)=  0.0942507 -0.0942507  0.0942507
 R(3)=  5.3050000  5.3050000  0.0000000  G(3)=  0.0942507  0.0942507 -0.0942507
 Unit cell volume ucvol=  2.9859750E+02 bohr^3
 Angles (23,13,12)=  6.00000000E+01  6.00000000E+01  6.00000000E+01 degrees
 
 getcut: wavevector=  0.0000  0.0000  0.0000  ngfft=  12  12  12
         ecut(hartree)=      3.000   => boxcut(ratio)=   2.05142
 
--- Pseudopotential description ------------------------------------------------
- pspini: atom type   1  psp file is ../../../Psps_for_tests/13al.981214.fhi
- pspatm: opening atomic psp file    ../../../Psps_for_tests/13al.981214.fhi
- Aluminum, fhi98PP : Hamann-type, LDA CA PerdewWang, l=2 local
- 13.00000   3.00000    981214                znucl, zion, pspdat
    6    7    2    2       493   0.00000      pspcod,pspxc,lmax,lloc,mmax,r2well
  No XC core correction.
  1.024700          amesh (Hamman grid)
 pspatm: epsatm=    1.36305739
         --- l  ekb(1:nproj) -->
             0    1.768744
             1    0.900554
 pspatm: atomic psp has been read  and splines computed
 
- pspini: atom type   2  psp file is ../../../Psps_for_tests/33as.pspnc
- pspatm: opening atomic psp file    ../../../Psps_for_tests/33as.pspnc
-  Troullier-Martins psp for element  As        Thu Oct 27 17:37:14 EDT 1994
- 33.00000   5.00000    940714                znucl, zion, pspdat
    1    1    1    1      2001   0.00000      pspcod,pspxc,lmax,lloc,mmax,r2well
    0   4.772  10.829    1   2.5306160        l,e99.0,e99.9,nproj,rcpsp
   0.00000000   0.00000000   0.00000000   0.00000000     rms, ekb1, ekb2, epsatm
    1   2.745   5.580    0   2.5306160        l,e99.0,e99.9,nproj,rcpsp
   0.00000000   0.00000000   0.00000000   0.00000000     rms, ekb1, ekb2, epsatm
    2.05731715564010    0.36322996461007    2.76014815959125   rchrg,fchrg,qchrg
 pspatm: epsatm=   27.20579911
         --- l  ekb(1:nproj) -->
             0    0.838751
 pspatm: atomic psp has been read  and splines computed
 
   2.28550852E+02                                ecore*ucvol(ha*bohr**3)
--------------------------------------------------------------------------------
 
P newkpt: treating      4 bands with npw=      69 for ikpt=   1 by node    0
P newkpt: treating      4 bands with npw=      74 for ikpt=   2 by node    0
P newkpt: treating      4 bands with npw=      77 for ikpt=   3 by node    0
P newkpt: treating      4 bands with npw=      76 for ikpt=   4 by node    0
P newkpt: treating      4 bands with npw=      74 for ikpt=   5 by node    0
P newkpt: treating      4 bands with npw=      76 for ikpt=   6 by node    1
P newkpt: treating      4 bands with npw=      76 for ikpt=   7 by node    1
P newkpt: treating      4 bands with npw=      75 for ikpt=   8 by node    1
P newkpt: treating      4 bands with npw=      65 for ikpt=   9 by node    1
P newkpt: treating      4 bands with npw=      74 for ikpt=  10 by node    1
 
_setup2: Arith. and geom. avg. npw (full set) are      74.469      74.418
 
================================================================================
 
     iter   Etot(hartree)      deltaE(h)  residm     vres2    diffor    maxfor
 ETOT  1  -9.7584531327344    -9.758E+00 4.240E-04 9.217E-01 4.957E-32 4.957E-32
 ETOT  2  -9.7624309507029    -3.978E-03 2.209E-10 5.230E-02 7.529E-29 7.534E-29
 ETOT  3  -9.7625319724437    -1.010E-04 6.876E-07 4.350E-02 7.534E-29 0.000E+00
 ETOT  4  -9.7626759839346    -1.440E-04 8.801E-07 2.783E-03 0.000E+00 0.000E+00
 ETOT  5  -9.7626832888971    -7.305E-06 6.248E-08 1.762E-04 3.172E-30 3.172E-30
 ETOT  6  -9.7626836930133    -4.041E-07 2.665E-09 2.118E-05 3.172E-30 0.000E+00
 ETOT  7  -9.7626837414868    -4.847E-08 4.868E-10 1.492E-06 0.000E+00 0.000E+00
 ETOT  8  -9.7626837445784    -3.092E-09 1.814E-11 1.880E-07 0.000E+00 0.000E+00
 ETOT  9  -9.7626837449752    -3.967E-10 3.575E-12 1.432E-08 0.000E+00 0.000E+00
 ETOT 10  -9.7626837450018    -2.665E-11 1.305E-13 1.869E-09 0.000E+00 0.000E+00
 ETOT 11  -9.7626837450054    -3.547E-12 2.686E-14 1.569E-10 0.000E+00 0.000E+00
 ETOT 12  -9.7626837450057    -2.967E-13 9.718E-16 2.105E-11 0.000E+00 0.000E+00
 ETOT 13  -9.7626837450056     1.954E-14 1.261E-17 1.470E-11 6.661E-32 6.661E-32
 ETOT 14  -9.7626837450057    -7.283E-14 3.753E-16 1.047E-12 6.661E-32 0.000E+00
 ETOT 15  -9.7626837450057     2.132E-14 1.297E-17 5.870E-15 0.000E+00 0.000E+00
 ETOT 16  -9.7626837450057     5.329E-15 4.313E-20 4.780E-17 0.000E+00 0.000E+00
 ETOT 17  -9.7626837450057    -2.132E-14 6.949E-22 5.335E-18 0.000E+00 0.000E+00
 ETOT 18  -9.7626837450057     7.105E-15 2.074E-22 3.636E-19 0.000E+00 0.000E+00
 
 At SCF step   18       vres2   =  3.64E-19 < tolvrs=  1.00E-18 =>converged.
 
 Cartesian components of stress tensor (hartree/bohr^3)
  sigma(1 1)=  2.88203316E-04  sigma(3 2)=  0.00000000E+00
  sigma(2 2)=  2.88203316E-04  sigma(3 1)=  0.00000000E+00
  sigma(3 3)=  2.88203316E-04  sigma(2 1)=  0.00000000E+00
 
================================================================================
 
 ----iterations are completed or convergence reached----
 
 Mean square residual over all n,k,spin=   5.7063E-23; max=  2.0736E-22
  -0.1250 -0.2500  0.0000    1  2.07359E-22 kpt; spin; max resid(k); each band:
  2.07E-22 1.86E-22 4.74E-25 2.88E-23
  -0.1250  0.5000  0.0000    1  7.29758E-23 kpt; spin; max resid(k); each band:
  7.30E-23 3.34E-23 4.34E-23 3.92E-25
  -0.2500 -0.3750  0.0000    1  1.64169E-22 kpt; spin; max resid(k); each band:
  1.64E-22 1.61E-22 1.17E-23 4.05E-24
  -0.1250 -0.3750  0.1250    1  1.20262E-22 kpt; spin; max resid(k); each band:
  1.20E-22 1.01E-22 2.65E-23 9.01E-24
  -0.1250  0.2500  0.0000    1  1.67814E-22 kpt; spin; max resid(k); each band:
  1.68E-22 1.50E-22 2.10E-23 3.90E-25
  -0.2500  0.3750  0.0000    1  5.40102E-23 kpt; spin; max resid(k); each band:
  5.40E-23 3.31E-23 2.19E-23 3.97E-24
  -0.3750  0.5000  0.0000    1  4.20121E-23 kpt; spin; max resid(k); each band:
  3.81E-23 4.20E-23 5.02E-24 2.53E-24
  -0.2500  0.5000  0.1250    1  3.37912E-23 kpt; spin; max resid(k); each band:
  3.38E-23 2.33E-23 2.33E-23 1.23E-23
  -0.1250  0.0000  0.0000    1  1.51379E-22 kpt; spin; max resid(k); each band:
  1.51E-22 1.51E-22 1.32E-24 1.32E-24
  -0.3750  0.0000  0.0000    1  8.68044E-23 kpt; spin; max resid(k); each band:
  8.68E-23 8.66E-23 5.64E-25 5.64E-25
 reduced coordinates (array xred) for    2 atoms
       0.000000000000      0.000000000000      0.000000000000
       0.250000000000      0.250000000000      0.250000000000
 rms dE/dt=  0.0000E+00; max dE/dt=  0.0000E+00; dE/dt below (all hartree)
    1       0.000000000000      0.000000000000      0.000000000000
    2       0.000000000000      0.000000000000      0.000000000000
 
 cartesian coordinates (angstrom) at end:
    1      0.00000000000000     0.00000000000000     0.00000000000000
    2      1.40364254578497     1.40364254578497     1.40364254578497
 
 cartesian forces (hartree/bohr) at end:
    1      0.00000000000000     0.00000000000000     0.00000000000000
    2      0.00000000000000     0.00000000000000     0.00000000000000
 frms,max,avg= 0.0000000E+00 0.0000000E+00   0.000E+00  0.000E+00  0.000E+00 h/b
 
 cartesian forces (eV/Angstrom) at end:
    1      0.00000000000000     0.00000000000000     0.00000000000000
    2      0.00000000000000     0.00000000000000     0.00000000000000
 frms,max,avg= 0.0000000E+00 0.0000000E+00   0.000E+00  0.000E+00  0.000E+00 e/A
 length scales= 10.610000000000 10.610000000000 10.610000000000 bohr
              =  5.614570183140  5.614570183140  5.614570183140 angstroms
 prteigrs : about to open file AlAs_o_DS1_EIG
 Fermi (or HOMO) energy (hartree) =   0.07884   Average Vxc (hartree)=  -0.33469
 Eigenvalues (hartree) for nkpt=  10  k points:
 kpt#   1, nband=  4, wtk=  0.09375, kpt= -0.1250 -0.2500  0.0000 (reduced coord)
  -0.33314  -0.02143   0.05015   0.05249
 kpt#   2, nband=  4, wtk=  0.09375, kpt= -0.1250  0.5000  0.0000 (reduced coord)
  -0.29747  -0.11672   0.01923   0.04186
 kpt#   3, nband=  4, wtk=  0.09375, kpt= -0.2500 -0.3750  0.0000 (reduced coord)
  -0.30791  -0.07156   0.00805   0.02143
 kpt#   4, nband=  4, wtk=  0.18750, kpt= -0.1250 -0.3750  0.1250 (reduced coord)
  -0.29952  -0.09297  -0.01299   0.03113
 kpt#   5, nband=  4, wtk=  0.09375, kpt= -0.1250  0.2500  0.0000 (reduced coord)
  -0.32072  -0.06308   0.01995   0.06499
 kpt#   6, nband=  4, wtk=  0.09375, kpt= -0.2500  0.3750  0.0000 (reduced coord)
  -0.28877  -0.10539  -0.03600   0.03149
 kpt#   7, nband=  4, wtk=  0.09375, kpt= -0.3750  0.5000  0.0000 (reduced coord)
  -0.28309  -0.10667  -0.01759   0.00608
 kpt#   8, nband=  4, wtk=  0.18750, kpt= -0.2500  0.5000  0.1250 (reduced coord)
  -0.28170  -0.10282  -0.03908  -0.00164
 kpt#   9, nband=  4, wtk=  0.03125, kpt= -0.1250  0.0000  0.0000 (reduced coord)
  -0.34831   0.03299   0.07884   0.07884
 kpt#  10, nband=  4, wtk=  0.03125, kpt= -0.3750  0.0000  0.0000 (reduced coord)
  -0.31097  -0.10010   0.05564   0.05564
 Total charge density [el/Bohr^3]
,     Maximum=    9.2541E-02  at reduced coord.    0.1667    0.1667    0.5000
,Next maximum=    9.2541E-02  at reduced coord.    0.1667    0.5000    0.1667
,     Minimum=    2.9515E-03  at reduced coord.    0.7500    0.7500    0.7500
,Next minimum=    3.3927E-03  at reduced coord.    0.7500    0.7500    0.6667
,  Integrated=    8.0000E+00
 
--------------------------------------------------------------------------------
 Components of total free energy (in Hartree) :
 
    Kinetic energy  =  2.91979677009953E+00
    Hartree energy  =  7.88574634451720E-01
    XC energy       = -3.93301606013621E+00
    Ewald energy    = -8.47989583509473E+00
    PspCore energy  =  7.65414498117065E-01
    Loc. psp. energy= -2.41963687677614E+00
    NL   psp  energy=  5.96079124333069E-01
    >>>>>>>>> Etotal= -9.76268374500570E+00
 
 Other information on the energy :
    Total energy(eV)= -2.65656134889133E+02 ; Band energy (Ha)=  -7.1353552797E-01
--------------------------------------------------------------------------------
 
 Cartesian components of stress tensor (hartree/bohr^3)
  sigma(1 1)=  2.88203316E-04  sigma(3 2)=  0.00000000E+00
  sigma(2 2)=  2.88203316E-04  sigma(3 1)=  0.00000000E+00
  sigma(3 3)=  2.88203316E-04  sigma(2 1)=  0.00000000E+00
 
-Cartesian components of stress tensor (GPa)         [Pressure= -8.4792E+00 GPa]
- sigma(1 1)=  8.47923288E+00  sigma(3 2)=  0.00000000E+00
- sigma(2 2)=  8.47923288E+00  sigma(3 1)=  0.00000000E+00
- sigma(3 3)=  8.47923288E+00  sigma(2 1)=  0.00000000E+00
 
================================================================================
== DATASET  2 ==================================================================
-   nproc =    2
 
 mkfilename : getwfk/=0, take file _WFK from output of DATASET   1.
 
 Exchange-correlation functional for the present dataset will be:
  LDA: new Teter (4/93) with spin-polarized option - ixc=1
 Citation for XC functional:
  S. Goedecker, M. Teter, J. Huetter, PRB 54, 1703 (1996)
 
 Real(R)+Recip(G) space primitive vectors, cartesian coordinates (Bohr,Bohr^-1):
 R(1)=  0.0000000  5.3050000  5.3050000  G(1)= -0.0942507  0.0942507  0.0942507
 R(2)=  5.3050000  0.0000000  5.3050000  G(2)=  0.0942507 -0.0942507  0.0942507
 R(3)=  5.3050000  5.3050000  0.0000000  G(3)=  0.0942507  0.0942507 -0.0942507
 Unit cell volume ucvol=  2.9859750E+02 bohr^3
 Angles (23,13,12)=  6.00000000E+01  6.00000000E+01  6.00000000E+01 degrees
 setup1 : take into account q-point for computing boxcut.
 
 getcut: wavevector=  0.0000  0.0000  0.0000  ngfft=  12  12  12
         ecut(hartree)=      3.000   => boxcut(ratio)=   2.05142
--------------------------------------------------------------------------------
 
-inwffil : will read wavefunctions from disk file AlAs_o_DS1_WFK
- newkpt: read input wf with ikpt,npw=   1      69, make ikpt,npw=   1      69
- newkpt: read input wf with ikpt,npw=   1      69, make ikpt,npw=   2      69
- newkpt: read input wf with ikpt,npw=   1      69, make ikpt,npw=   3      69
- newkpt: read input wf with ikpt,npw=   2      74, make ikpt,npw=   4      74
- newkpt: read input wf with ikpt,npw=   3      77, make ikpt,npw=   5      77
- newkpt: read input wf with ikpt,npw=   4      76, make ikpt,npw=   6      76
- newkpt: read input wf with ikpt,npw=   3      77, make ikpt,npw=   7      77
- newkpt: read input wf with ikpt,npw=   3      77, make ikpt,npw=   8      77
- newkpt: read input wf with ikpt,npw=   4      76, make ikpt,npw=   9      76
- newkpt: read input wf with ikpt,npw=   2      74, make ikpt,npw=  10      74
- newkpt: read input wf with ikpt,npw=   4      76, make ikpt,npw=  11      76
- newkpt: read input wf with ikpt,npw=   4      76, make ikpt,npw=  12      76
- newkpt: read input wf with ikpt,npw=   2      74, make ikpt,npw=  13      74
- newkpt: read input wf with ikpt,npw=   5      74, make ikpt,npw=  14      74
- newkpt: read input wf with ikpt,npw=   6      76, make ikpt,npw=  15      76
- newkpt: read input wf with ikpt,npw=   4      76, make ikpt,npw=  16      76
- newkpt: read input wf with ikpt,npw=   7      76, make ikpt,npw=  17      76
- newkpt: read input wf with ikpt,npw=   8      75, make ikpt,npw=  18      75
- newkpt: read input wf with ikpt,npw=   8      75, make ikpt,npw=  19      75
- newkpt: read input wf with ikpt,npw=   7      76, make ikpt,npw=  20      76
- newkpt: read input wf with ikpt,npw=   7      76, make ikpt,npw=  21      76
- newkpt: read input wf with ikpt,npw=   8      75, make ikpt,npw=  22      75
- newkpt: read input wf with ikpt,npw=   8      75, make ikpt,npw=  23      75
- newkpt: read input wf with ikpt,npw=   6      76, make ikpt,npw=  24      76
- newkpt: read input wf with ikpt,npw=   8      75, make ikpt,npw=  25      75
- newkpt: read input wf with ikpt,npw=   8      75, make ikpt,npw=  26      75
- newkpt: read input wf with ikpt,npw=   6      76, make ikpt,npw=  27      76
- newkpt: read input wf with ikpt,npw=   4      76, make ikpt,npw=  28      76
- newkpt: read input wf with ikpt,npw=   5      74, make ikpt,npw=  29      74
- newkpt: read input wf with ikpt,npw=   4      76, make ikpt,npw=  30      76
- newkpt: read input wf with ikpt,npw=   8      75, make ikpt,npw=  31      75
- newkpt: read input wf with ikpt,npw=   8      75, make ikpt,npw=  32      75
- newkpt: read input wf with ikpt,npw=   4      76, make ikpt,npw=  33      76
- newkpt: read input wf with ikpt,npw=   5      74, make ikpt,npw=  34      74
- newkpt: read input wf with ikpt,npw=   9      65, make ikpt,npw=  35      65
- newkpt: read input wf with ikpt,npw=   1      69, make ikpt,npw=  36      69
- newkpt: read input wf with ikpt,npw=   4      76, make ikpt,npw=  37      76
- newkpt: read input wf with ikpt,npw=   3      77, make ikpt,npw=  38      77
- newkpt: read input wf with ikpt,npw=   8      75, make ikpt,npw=  39      75
- newkpt: read input wf with ikpt,npw=   8      75, make ikpt,npw=  40      75
- newkpt: read input wf with ikpt,npw=   7      76, make ikpt,npw=  41      76
- newkpt: read input wf with ikpt,npw=   7      76, make ikpt,npw=  42      76
- newkpt: read input wf with ikpt,npw=   8      75, make ikpt,npw=  43      75
- newkpt: read input wf with ikpt,npw=   8      75, make ikpt,npw=  44      75
- newkpt: read input wf with ikpt,npw=   7      76, make ikpt,npw=  45      76
- newkpt: read input wf with ikpt,npw=   8      75, make ikpt,npw=  46      75
- newkpt: read input wf with ikpt,npw=   8      75, make ikpt,npw=  47      75
- newkpt: read input wf with ikpt,npw=   6      76, make ikpt,npw=  48      76
- newkpt: read input wf with ikpt,npw=   4      76, make ikpt,npw=  49      76
- newkpt: read input wf with ikpt,npw=   3      77, make ikpt,npw=  50      77
- newkpt : prtvol=0 or 1, do not print more k-points.
 
 
 ==>  initialize data related to q vector <== 
 
 The list of irreducible perturbations for this q vector is:
    1)    idir= 1    ipert=   3
    2)    idir= 2    ipert=   3
    3)    idir= 3    ipert=   3
 
================================================================================
 
--------------------------------------------------------------------------------
 Perturbation wavevector (in red.coord.)   0.000000  0.000000  0.000000
 Perturbation : derivative vs k along direction   1
 The set of symmetries contains only one element for this perturbation.
 symkpt : not enough symmetry to change the number of k points.
 
--------------------------------------------------------------------------------
 
-inwffil : will read wavefunctions from disk file AlAs_o_DS1_WFK
- newkpt: read input wf with ikpt,npw=   1      69, make ikpt,npw=   1      69
- newkpt: read input wf with ikpt,npw=   1      69, make ikpt,npw=   2      69
- newkpt: read input wf with ikpt,npw=   1      69, make ikpt,npw=   3      69
- newkpt: read input wf with ikpt,npw=   2      74, make ikpt,npw=   4      74
- newkpt: read input wf with ikpt,npw=   3      77, make ikpt,npw=   5      77
- newkpt: read input wf with ikpt,npw=   4      76, make ikpt,npw=   6      76
- newkpt: read input wf with ikpt,npw=   3      77, make ikpt,npw=   7      77
- newkpt: read input wf with ikpt,npw=   3      77, make ikpt,npw=   8      77
- newkpt: read input wf with ikpt,npw=   4      76, make ikpt,npw=   9      76
- newkpt: read input wf with ikpt,npw=   2      74, make ikpt,npw=  10      74
- newkpt: read input wf with ikpt,npw=   4      76, make ikpt,npw=  11      76
- newkpt: read input wf with ikpt,npw=   4      76, make ikpt,npw=  12      76
- newkpt: read input wf with ikpt,npw=   2      74, make ikpt,npw=  13      74
- newkpt: read input wf with ikpt,npw=   5      74, make ikpt,npw=  14      74
- newkpt: read input wf with ikpt,npw=   6      76, make ikpt,npw=  15      76
- newkpt: read input wf with ikpt,npw=   4      76, make ikpt,npw=  16      76
- newkpt: read input wf with ikpt,npw=   7      76, make ikpt,npw=  17      76
- newkpt: read input wf with ikpt,npw=   8      75, make ikpt,npw=  18      75
- newkpt: read input wf with ikpt,npw=   8      75, make ikpt,npw=  19      75
- newkpt: read input wf with ikpt,npw=   7      76, make ikpt,npw=  20      76
- newkpt: read input wf with ikpt,npw=   7      76, make ikpt,npw=  21      76
- newkpt: read input wf with ikpt,npw=   8      75, make ikpt,npw=  22      75
- newkpt: read input wf with ikpt,npw=   8      75, make ikpt,npw=  23      75
- newkpt: read input wf with ikpt,npw=   6      76, make ikpt,npw=  24      76
- newkpt: read input wf with ikpt,npw=   8      75, make ikpt,npw=  25      75
- newkpt: read input wf with ikpt,npw=   8      75, make ikpt,npw=  26      75
- newkpt: read input wf with ikpt,npw=   6      76, make ikpt,npw=  27      76
- newkpt: read input wf with ikpt,npw=   4      76, make ikpt,npw=  28      76
- newkpt: read input wf with ikpt,npw=   5      74, make ikpt,npw=  29      74
- newkpt: read input wf with ikpt,npw=   4      76, make ikpt,npw=  30      76
- newkpt: read input wf with ikpt,npw=   8      75, make ikpt,npw=  31      75
- newkpt: read input wf with ikpt,npw=   8      75, make ikpt,npw=  32      75
- newkpt: read input wf with ikpt,npw=   4      76, make ikpt,npw=  33      76
- newkpt: read input wf with ikpt,npw=   5      74, make ikpt,npw=  34      74
- newkpt: read input wf with ikpt,npw=   9      65, make ikpt,npw=  35      65
- newkpt: read input wf with ikpt,npw=   1      69, make ikpt,npw=  36      69
- newkpt: read input wf with ikpt,npw=   4      76, make ikpt,npw=  37      76
- newkpt: read input wf with ikpt,npw=   3      77, make ikpt,npw=  38      77
- newkpt: read input wf with ikpt,npw=   8      75, make ikpt,npw=  39      75
- newkpt: read input wf with ikpt,npw=   8      75, make ikpt,npw=  40      75
- newkpt: read input wf with ikpt,npw=   7      76, make ikpt,npw=  41      76
- newkpt: read input wf with ikpt,npw=   7      76, make ikpt,npw=  42      76
- newkpt: read input wf with ikpt,npw=   8      75, make ikpt,npw=  43      75
- newkpt: read input wf with ikpt,npw=   8      75, make ikpt,npw=  44      75
- newkpt: read input wf with ikpt,npw=   7      76, make ikpt,npw=  45      76
- newkpt: read input wf with ikpt,npw=   8      75, make ikpt,npw=  46      75
- newkpt: read input wf with ikpt,npw=   8      75, make ikpt,npw=  47      75
- newkpt: read input wf with ikpt,npw=   6      76, make ikpt,npw=  48      76
- newkpt: read input wf with ikpt,npw=   4      76, make ikpt,npw=  49      76
- newkpt: read input wf with ikpt,npw=   3      77, make ikpt,npw=  50      77
- newkpt : prtvol=0 or 1, do not print more k-points.
 
--------------------------------------------------------------------------------
 
-inwffil : will read wavefunctions from disk file AlAs_o_DS1_WFK
- newkpt: read input wf with ikpt,npw=   1      69, make ikpt,npw=   1      69
- newkpt: read input wf with ikpt,npw=   1      69, make ikpt,npw=   2      69
- newkpt: read input wf with ikpt,npw=   1      69, make ikpt,npw=   3      69
- newkpt: read input wf with ikpt,npw=   2      74, make ikpt,npw=   4      74
- newkpt: read input wf with ikpt,npw=   3      77, make ikpt,npw=   5      77
- newkpt: read input wf with ikpt,npw=   4      76, make ikpt,npw=   6      76
- newkpt: read input wf with ikpt,npw=   3      77, make ikpt,npw=   7      77
- newkpt: read input wf with ikpt,npw=   3      77, make ikpt,npw=   8      77
- newkpt: read input wf with ikpt,npw=   4      76, make ikpt,npw=   9      76
- newkpt: read input wf with ikpt,npw=   2      74, make ikpt,npw=  10      74
- newkpt: read input wf with ikpt,npw=   4      76, make ikpt,npw=  11      76
- newkpt: read input wf with ikpt,npw=   4      76, make ikpt,npw=  12      76
- newkpt: read input wf with ikpt,npw=   2      74, make ikpt,npw=  13      74
- newkpt: read input wf with ikpt,npw=   5      74, make ikpt,npw=  14      74
- newkpt: read input wf with ikpt,npw=   6      76, make ikpt,npw=  15      76
- newkpt: read input wf with ikpt,npw=   4      76, make ikpt,npw=  16      76
- newkpt: read input wf with ikpt,npw=   7      76, make ikpt,npw=  17      76
- newkpt: read input wf with ikpt,npw=   8      75, make ikpt,npw=  18      75
- newkpt: read input wf with ikpt,npw=   8      75, make ikpt,npw=  19      75
- newkpt: read input wf with ikpt,npw=   7      76, make ikpt,npw=  20      76
- newkpt: read input wf with ikpt,npw=   7      76, make ikpt,npw=  21      76
- newkpt: read input wf with ikpt,npw=   8      75, make ikpt,npw=  22      75
- newkpt: read input wf with ikpt,npw=   8      75, make ikpt,npw=  23      75
- newkpt: read input wf with ikpt,npw=   6      76, make ikpt,npw=  24      76
- newkpt: read input wf with ikpt,npw=   8      75, make ikpt,npw=  25      75
- newkpt: read input wf with ikpt,npw=   8      75, make ikpt,npw=  26      75
- newkpt: read input wf with ikpt,npw=   6      76, make ikpt,npw=  27      76
- newkpt: read input wf with ikpt,npw=   4      76, make ikpt,npw=  28      76
- newkpt: read input wf with ikpt,npw=   5      74, make ikpt,npw=  29      74
- newkpt: read input wf with ikpt,npw=   4      76, make ikpt,npw=  30      76
- newkpt: read input wf with ikpt,npw=   8      75, make ikpt,npw=  31      75
- newkpt: read input wf with ikpt,npw=   8      75, make ikpt,npw=  32      75
- newkpt: read input wf with ikpt,npw=   4      76, make ikpt,npw=  33      76
- newkpt: read input wf with ikpt,npw=   5      74, make ikpt,npw=  34      74
- newkpt: read input wf with ikpt,npw=   9      65, make ikpt,npw=  35      65
- newkpt: read input wf with ikpt,npw=   1      69, make ikpt,npw=  36      69
- newkpt: read input wf with ikpt,npw=   4      76, make ikpt,npw=  37      76
- newkpt: read input wf with ikpt,npw=   3      77, make ikpt,npw=  38      77
- newkpt: read input wf with ikpt,npw=   8      75, make ikpt,npw=  39      75
- newkpt: read input wf with ikpt,npw=   8      75, make ikpt,npw=  40      75
- newkpt: read input wf with ikpt,npw=   7      76, make ikpt,npw=  41      76
- newkpt: read input wf with ikpt,npw=   7      76, make ikpt,npw=  42      76
- newkpt: read input wf with ikpt,npw=   8      75, make ikpt,npw=  43      75
- newkpt: read input wf with ikpt,npw=   8      75, make ikpt,npw=  44      75
- newkpt: read input wf with ikpt,npw=   7      76, make ikpt,npw=  45      76
- newkpt: read input wf with ikpt,npw=   8      75, make ikpt,npw=  46      75
- newkpt: read input wf with ikpt,npw=   8      75, make ikpt,npw=  47      75
- newkpt: read input wf with ikpt,npw=   6      76, make ikpt,npw=  48      76
- newkpt: read input wf with ikpt,npw=   4      76, make ikpt,npw=  49      76
- newkpt: read input wf with ikpt,npw=   3      77, make ikpt,npw=  50      77
- newkpt : prtvol=0 or 1, do not print more k-points.
 
 Initialisation of the first-order wave-functions :
  ireadwf=   0
P newkpt: treating      4 bands with npw=      69 for ikpt=   1 by node    0
P newkpt: treating      4 bands with npw=      69 for ikpt=   2 by node    0
P newkpt: treating      4 bands with npw=      69 for ikpt=   3 by node    0
P newkpt: treating      4 bands with npw=      74 for ikpt=   4 by node    0
P newkpt: treating      4 bands with npw=      77 for ikpt=   5 by node    0
P newkpt: treating      4 bands with npw=      76 for ikpt=   6 by node    0
P newkpt: treating      4 bands with npw=      77 for ikpt=   7 by node    0
P newkpt: treating      4 bands with npw=      77 for ikpt=   8 by node    0
P newkpt: treating      4 bands with npw=      76 for ikpt=   9 by node    0
P newkpt: treating      4 bands with npw=      74 for ikpt=  10 by node    0
P newkpt: treating      4 bands with npw=      76 for ikpt=  11 by node    0
P newkpt: treating      4 bands with npw=      76 for ikpt=  12 by node    0
P newkpt: treating      4 bands with npw=      74 for ikpt=  13 by node    0
P newkpt: treating      4 bands with npw=      74 for ikpt=  14 by node    0
P newkpt: treating      4 bands with npw=      76 for ikpt=  15 by node    0
P newkpt: treating      4 bands with npw=      76 for ikpt=  16 by node    0
P newkpt: treating      4 bands with npw=      76 for ikpt=  17 by node    0
P newkpt: treating      4 bands with npw=      75 for ikpt=  18 by node    0
P newkpt: treating      4 bands with npw=      75 for ikpt=  19 by node    0
P newkpt: treating      4 bands with npw=      76 for ikpt=  20 by node    0
P newkpt: treating      4 bands with npw=      76 for ikpt=  21 by node    0
P newkpt: treating      4 bands with npw=      75 for ikpt=  22 by node    0
P newkpt: treating      4 bands with npw=      75 for ikpt=  23 by node    0
P newkpt: treating      4 bands with npw=      76 for ikpt=  24 by node    0
P newkpt: treating      4 bands with npw=      75 for ikpt=  25 by node    0
P newkpt: treating      4 bands with npw=      75 for ikpt=  26 by node    0
P newkpt: treating      4 bands with npw=      76 for ikpt=  27 by node    0
P newkpt: treating      4 bands with npw=      76 for ikpt=  28 by node    0
P newkpt: treating      4 bands with npw=      74 for ikpt=  29 by node    0
P newkpt: treating      4 bands with npw=      76 for ikpt=  30 by node    0
P newkpt: treating      4 bands with npw=      75 for ikpt=  31 by node    0
P newkpt: treating      4 bands with npw=      75 for ikpt=  32 by node    0
P newkpt: treating      4 bands with npw=      76 for ikpt=  33 by node    0
P newkpt: treating      4 bands with npw=      74 for ikpt=  34 by node    0
P newkpt: treating      4 bands with npw=      65 for ikpt=  35 by node    0
P newkpt: treating      4 bands with npw=      69 for ikpt=  36 by node    0
P newkpt: treating      4 bands with npw=      76 for ikpt=  37 by node    0
P newkpt: treating      4 bands with npw=      77 for ikpt=  38 by node    0
P newkpt: treating      4 bands with npw=      75 for ikpt=  39 by node    0
P newkpt: treating      4 bands with npw=      75 for ikpt=  40 by node    0
P newkpt: treating      4 bands with npw=      76 for ikpt=  41 by node    0
P newkpt: treating      4 bands with npw=      76 for ikpt=  42 by node    0
P newkpt: treating      4 bands with npw=      75 for ikpt=  43 by node    0
P newkpt: treating      4 bands with npw=      75 for ikpt=  44 by node    0
P newkpt: treating      4 bands with npw=      76 for ikpt=  45 by node    0
P newkpt: treating      4 bands with npw=      75 for ikpt=  46 by node    0
P newkpt: treating      4 bands with npw=      75 for ikpt=  47 by node    0
P newkpt: treating      4 bands with npw=      76 for ikpt=  48 by node    0
P newkpt: treating      4 bands with npw=      76 for ikpt=  49 by node    0
P newkpt: treating      4 bands with npw=      77 for ikpt=  50 by node    0
 newkpt: prtvol=0 or 1, do not print more k-points.
 
 
     iter   2DEtotal(Ha)        deltaE(Ha) residm    vres2
-ETOT  1  -8.3114098398580     -8.311E+00 2.709E-02 0.000E+00
 ETOT  2  -8.3153468863159     -3.937E-03 1.678E-05 0.000E+00
 ETOT  3  -8.3153482599005     -1.374E-06 4.304E-09 0.000E+00
 ETOT  4  -8.3153482607223     -8.218E-10 6.757E-12 0.000E+00
 ETOT  5  -8.3153482607231     -7.692E-13 9.995E-15 0.000E+00
 ETOT  6  -8.3153482607231     -7.105E-15 1.690E-17 0.000E+00
 ETOT  7  -8.3153482607231      5.329E-15 2.558E-20 0.000E+00
 ETOT  8  -8.3153482607231     -1.776E-15 9.944E-23 0.000E+00
 
 At SCF step    8   max residual=  9.94E-23 < tolwfr=  1.00E-22 =>converged.
================================================================================
 
 ----iterations are completed or convergence reached----
 
 Mean square residual over all n,k,spin=   3.5796E-23; max=  9.9438E-23
  -0.1250 -0.2500  0.0000    1  1.42359E-23 kpt; spin; max resid(k); each band:
  1.71E-24 1.42E-23 8.52E-24 6.32E-24
  -0.2500 -0.1250  0.0000    1  5.65757E-23 kpt; spin; max resid(k); each band:
  5.66E-23 7.54E-24 1.42E-23 5.43E-23
  -0.1250 -0.1250  0.1250    1  6.44378E-23 kpt; spin; max resid(k); each band:
  1.77E-23 2.91E-23 6.44E-23 3.02E-23
  -0.1250  0.5000  0.0000    1  8.82957E-23 kpt; spin; max resid(k); each band:
  8.83E-23 1.70E-23 2.90E-23 6.46E-23
  -0.2500 -0.3750  0.0000    1  1.77405E-23 kpt; spin; max resid(k); each band:
  1.03E-23 1.77E-23 1.72E-23 8.50E-24
  -0.1250 -0.3750  0.1250    1  8.52797E-23 kpt; spin; max resid(k); each band:
  3.85E-23 8.53E-23 5.92E-23 5.00E-23
  -0.3750 -0.2500  0.0000    1  3.58912E-23 kpt; spin; max resid(k); each band:
  2.59E-23 3.59E-23 1.71E-23 1.56E-23
  -0.2500 -0.2500  0.1250    1  4.95696E-23 kpt; spin; max resid(k); each band:
  3.53E-23 4.96E-23 6.28E-24 2.46E-23
  -0.1250 -0.2500  0.2500    1  7.20302E-23 kpt; spin; max resid(k); each band:
  7.20E-23 4.26E-23 6.45E-24 3.67E-23
   0.5000 -0.1250  0.0000    1  5.26287E-23 kpt; spin; max resid(k); each band:
  7.42E-24 2.77E-23 5.26E-23 4.14E-23
  -0.3750 -0.1250  0.1250    1  5.98279E-23 kpt; spin; max resid(k); each band:
  5.98E-23 5.79E-23 9.93E-24 4.58E-23
  -0.2500 -0.1250  0.2500    1  9.85800E-23 kpt; spin; max resid(k); each band:
  9.86E-23 7.44E-24 1.70E-23 8.62E-23
  -0.1250 -0.1250  0.3750    1  7.47888E-23 kpt; spin; max resid(k); each band:
  5.16E-23 2.32E-23 9.36E-24 7.48E-23
  -0.1250  0.2500  0.0000    1  8.70532E-23 kpt; spin; max resid(k); each band:
  1.20E-23 6.26E-23 7.03E-23 8.71E-23
  -0.2500  0.3750  0.0000    1  5.20198E-23 kpt; spin; max resid(k); each band:
  4.34E-23 5.20E-23 2.23E-23 4.05E-23
  -0.1250  0.3750  0.1250    1  9.85797E-23 kpt; spin; max resid(k); each band:
  9.86E-23 7.44E-24 1.70E-23 8.62E-23
  -0.3750  0.5000  0.0000    1  3.59482E-23 kpt; spin; max resid(k); each band:
  3.59E-23 3.30E-23 1.41E-23 6.17E-24
  -0.2500  0.5000  0.1250    1  5.10272E-23 kpt; spin; max resid(k); each band:
  1.76E-24 1.26E-23 5.10E-23 1.90E-24
  -0.1250  0.5000  0.2500    1  9.61766E-23 kpt; spin; max resid(k); each band:
  6.46E-23 9.62E-23 1.60E-23 8.83E-24
   0.5000 -0.3750  0.0000    1  7.98162E-23 kpt; spin; max resid(k); each band:
  1.96E-23 7.98E-23 2.52E-23 4.24E-23
  -0.3750 -0.3750  0.1250    1  4.05044E-23 kpt; spin; max resid(k); each band:
  2.95E-23 4.05E-23 1.70E-23 1.73E-23
  -0.2500 -0.3750  0.2500    1  4.50740E-23 kpt; spin; max resid(k); each band:
  1.15E-23 1.68E-23 4.51E-23 8.40E-25
  -0.1250 -0.3750  0.3750    1  4.50739E-23 kpt; spin; max resid(k); each band:
  1.15E-23 1.68E-23 4.51E-23 8.40E-25
   0.3750 -0.2500  0.0000    1  9.18999E-23 kpt; spin; max resid(k); each band:
  3.32E-23 1.28E-23 9.19E-23 2.69E-23
   0.5000 -0.2500  0.1250    1  6.63174E-23 kpt; spin; max resid(k); each band:
  6.63E-23 1.51E-23 4.82E-23 1.25E-23
  -0.3750 -0.2500  0.2500    1  9.61768E-23 kpt; spin; max resid(k); each band:
  6.46E-23 9.62E-23 1.60E-23 8.83E-24
  -0.2500 -0.2500  0.3750    1  6.42184E-23 kpt; spin; max resid(k); each band:
  1.69E-23 6.42E-23 4.08E-23 8.68E-24
  -0.1250 -0.2500  0.5000    1  7.20302E-23 kpt; spin; max resid(k); each band:
  7.20E-23 4.26E-23 6.45E-24 3.67E-23
   0.2500 -0.1250  0.0000    1  3.18712E-23 kpt; spin; max resid(k); each band:
  3.19E-23 2.28E-23 1.66E-23 1.73E-23
   0.3750 -0.1250  0.1250    1  5.98275E-23 kpt; spin; max resid(k); each band:
  5.98E-23 5.79E-23 9.93E-24 4.58E-23
   0.5000 -0.1250  0.2500    1  6.63174E-23 kpt; spin; max resid(k); each band:
  6.63E-23 1.51E-23 4.82E-23 1.25E-23
  -0.3750 -0.1250  0.3750    1  5.10274E-23 kpt; spin; max resid(k); each band:
  1.76E-24 1.26E-23 5.10E-23 1.90E-24
  -0.2500 -0.1250  0.5000    1  8.52799E-23 kpt; spin; max resid(k); each band:
  3.85E-23 8.53E-23 5.92E-23 5.00E-23
  -0.1250 -0.1250 -0.3750    1  5.76319E-23 kpt; spin; max resid(k); each band:
  3.57E-23 2.23E-23 5.76E-23 3.91E-23
  -0.1250  0.0000  0.0000    1  6.32531E-23 kpt; spin; max resid(k); each band:
  4.70E-23 4.97E-23 6.33E-23 6.33E-23
  -0.1250  0.1250  0.1250    1  5.65757E-23 kpt; spin; max resid(k); each band:
  5.66E-23 7.54E-24 1.42E-23 5.43E-23
  -0.2500  0.2500  0.1250    1  5.98277E-23 kpt; spin; max resid(k); each band:
  5.98E-23 5.79E-23 9.93E-24 4.58E-23
  -0.1250  0.2500  0.2500    1  3.58913E-23 kpt; spin; max resid(k); each band:
  2.59E-23 3.59E-23 1.71E-23 1.56E-23
  -0.3750  0.3750  0.1250    1  6.63174E-23 kpt; spin; max resid(k); each band:
  6.63E-23 1.51E-23 4.82E-23 1.25E-23
  -0.2500  0.3750  0.2500    1  6.63173E-23 kpt; spin; max resid(k); each band:
  6.63E-23 1.51E-23 4.82E-23 1.25E-23
  -0.1250  0.3750  0.3750    1  7.98167E-23 kpt; spin; max resid(k); each band:
  1.96E-23 7.98E-23 2.52E-23 4.24E-23
   0.5000  0.5000  0.1250    1  4.05042E-23 kpt; spin; max resid(k); each band:
  2.95E-23 4.05E-23 1.70E-23 1.73E-23
  -0.3750  0.5000  0.2500    1  9.61768E-23 kpt; spin; max resid(k); each band:
  6.46E-23 9.62E-23 1.60E-23 8.83E-24
  -0.2500  0.5000  0.3750    1  5.10277E-23 kpt; spin; max resid(k); each band:
  1.76E-24 1.26E-23 5.10E-23 1.90E-24
  -0.1250  0.5000  0.5000    1  3.59482E-23 kpt; spin; max resid(k); each band:
  3.59E-23 3.30E-23 1.41E-23 6.17E-24
   0.3750 -0.3750  0.1250    1  5.10274E-23 kpt; spin; max resid(k); each band:
  1.76E-24 1.26E-23 5.10E-23 1.90E-24
   0.5000 -0.3750  0.2500    1  4.50739E-23 kpt; spin; max resid(k); each band:
  1.15E-23 1.68E-23 4.51E-23 8.40E-25
  -0.3750 -0.3750  0.3750    1  6.42183E-23 kpt; spin; max resid(k); each band:
  1.69E-23 6.42E-23 4.08E-23 8.68E-24
  -0.2500 -0.3750  0.5000    1  8.52800E-23 kpt; spin; max resid(k); each band:
  3.85E-23 8.53E-23 5.92E-23 5.00E-23
  -0.1250 -0.3750 -0.3750    1  1.77407E-23 kpt; spin; max resid(k); each band:
  1.03E-23 1.77E-23 1.72E-23 8.50E-24
 outwf : prtvol=0 or 1, do not print more k-points.
 
 loper3 : ek2=    1.6833336546E+01
          f-sum rule ratio=    1.0028582974E+00
 prteigrs : about to open file AlAs_1WF1_EIG
 Expectation of eigenvalue derivatives (hartree) for nkpt= 128  k points:
  (in case of degenerate eigenvalues, averaged derivative)
 kpt#   1, nband=  4, wtk=  0.00781, kpt= -0.1250 -0.2500  0.0000 (reduced coord)
  -0.03198  -0.09242   0.14993   0.22645
 kpt#   2, nband=  4, wtk=  0.00781, kpt= -0.2500 -0.1250  0.0000 (reduced coord)
  -0.13929   0.51605   0.09880   0.12763
 kpt#   3, nband=  4, wtk=  0.00781, kpt= -0.1250 -0.1250  0.1250 (reduced coord)
  -0.08564   0.21181   0.12436   0.17704
 kpt#   4, nband=  4, wtk=  0.00781, kpt= -0.1250  0.5000  0.0000 (reduced coord)
  -0.03643  -0.10827   0.38279   0.14383
 kpt#   5, nband=  4, wtk=  0.00781, kpt= -0.2500 -0.3750  0.0000 (reduced coord)
  -0.07845   0.04877   0.05416   0.13697
 kpt#   6, nband=  4, wtk=  0.00781, kpt= -0.1250 -0.3750  0.1250 (reduced coord)
  -0.03895  -0.10439   0.14791   0.23707
 kpt#   7, nband=  4, wtk=  0.00781, kpt= -0.3750 -0.2500  0.0000 (reduced coord)
  -0.14989   0.31300   0.24103   0.04231
 kpt#   8, nband=  4, wtk=  0.00781, kpt= -0.2500 -0.2500  0.1250 (reduced coord)
  -0.11417   0.18088   0.14760   0.08964
 kpt#   9, nband=  4, wtk=  0.00781, kpt= -0.1250 -0.2500  0.2500 (reduced coord)
  -0.05168   0.10158  -0.12171   0.19198
 kpt#  10, nband=  4, wtk=  0.00781, kpt=  0.5000 -0.1250  0.0000 (reduced coord)
  -0.06403   0.12595   0.08264  -0.03964
 kpt#  11, nband=  4, wtk=  0.00781, kpt= -0.3750 -0.1250  0.1250 (reduced coord)
  -0.13807   0.26610   0.09358   0.10562
 kpt#  12, nband=  4, wtk=  0.00781, kpt= -0.2500 -0.1250  0.2500 (reduced coord)
  -0.12534   0.06014   0.36320   0.15071
 kpt#  13, nband=  4, wtk=  0.00781, kpt= -0.1250 -0.1250  0.3750 (reduced coord)
  -0.05023   0.00884   0.23271   0.05209
 kpt#  14, nband=  4, wtk=  0.00781, kpt= -0.1250  0.2500  0.0000 (reduced coord)
  -0.12509   0.15881   0.45017   0.08099
 kpt#  15, nband=  4, wtk=  0.00781, kpt= -0.2500  0.3750  0.0000 (reduced coord)
  -0.09841  -0.04898   0.30365   0.15722
 kpt#  16, nband=  4, wtk=  0.00781, kpt= -0.1250  0.3750  0.1250 (reduced coord)
  -0.12534   0.06014   0.36320   0.15071
 kpt#  17, nband=  4, wtk=  0.00781, kpt= -0.3750  0.5000  0.0000 (reduced coord)
  -0.05792   0.10840  -0.18471   0.08695
 kpt#  18, nband=  4, wtk=  0.00781, kpt= -0.2500  0.5000  0.1250 (reduced coord)
  -0.05450   0.00540  -0.01098   0.17205
 kpt#  19, nband=  4, wtk=  0.00781, kpt= -0.1250  0.5000  0.2500 (reduced coord)
  -0.06274  -0.01472   0.07639   0.26119
 kpt#  20, nband=  4, wtk=  0.00781, kpt=  0.5000 -0.3750  0.0000 (reduced coord)
  -0.07334   0.06626   0.29046  -0.02430
 kpt#  21, nband=  4, wtk=  0.00781, kpt= -0.3750 -0.3750  0.1250 (reduced coord)
  -0.06563   0.08733   0.05287   0.03133
 kpt#  22, nband=  4, wtk=  0.00781, kpt= -0.2500 -0.3750  0.2500 (reduced coord)
  -0.02589   0.03706   0.07414  -0.12454
 kpt#  23, nband=  4, wtk=  0.00781, kpt= -0.1250 -0.3750  0.3750 (reduced coord)
   0.02589  -0.03706  -0.07414   0.12454
 kpt#  24, nband=  4, wtk=  0.00781, kpt=  0.3750 -0.2500  0.0000 (reduced coord)
   0.06243  -0.11010   0.04584  -0.11565
 kpt#  25, nband=  4, wtk=  0.00781, kpt=  0.5000 -0.2500  0.1250 (reduced coord)
  -0.03413   0.01694   0.16151  -0.03540
 kpt#  26, nband=  4, wtk=  0.00781, kpt= -0.3750 -0.2500  0.2500 (reduced coord)
  -0.06274  -0.01472   0.07639   0.26119
 kpt#  27, nband=  4, wtk=  0.00781, kpt= -0.2500 -0.2500  0.3750 (reduced coord)
  -0.01799  -0.07954   0.17474   0.02078
 kpt#  28, nband=  4, wtk=  0.00781, kpt= -0.1250 -0.2500  0.5000 (reduced coord)
   0.05168  -0.10158   0.12171  -0.19198
 kpt#  29, nband=  4, wtk=  0.00781, kpt=  0.2500 -0.1250  0.0000 (reduced coord)
   0.16725  -0.45326  -0.10366  -0.12127
 kpt#  30, nband=  4, wtk=  0.00781, kpt=  0.3750 -0.1250  0.1250 (reduced coord)
   0.13807  -0.26610  -0.09358  -0.10562
 kpt#  31, nband=  4, wtk=  0.00781, kpt=  0.5000 -0.1250  0.2500 (reduced coord)
   0.03413  -0.01694  -0.16151   0.03540
 kpt#  32, nband=  4, wtk=  0.00781, kpt= -0.3750 -0.1250  0.3750 (reduced coord)
  -0.05450   0.00540  -0.01098   0.17205
 kpt#  33, nband=  4, wtk=  0.00781, kpt= -0.2500 -0.1250  0.5000 (reduced coord)
  -0.03895  -0.10439   0.14791   0.23707
 kpt#  34, nband=  4, wtk=  0.00781, kpt= -0.1250 -0.1250 -0.3750 (reduced coord)
   0.02108  -0.14722   0.17326  -0.02014
 kpt#  35, nband=  4, wtk=  0.00781, kpt= -0.1250  0.0000  0.0000 (reduced coord)
  -0.09210   0.59520   0.08830   0.08830
 kpt#  36, nband=  4, wtk=  0.00781, kpt= -0.1250  0.1250  0.1250 (reduced coord)
  -0.13929   0.51605   0.09880   0.12763
 kpt#  37, nband=  4, wtk=  0.00781, kpt= -0.2500  0.2500  0.1250 (reduced coord)
  -0.13807   0.26610   0.09358   0.10562
 kpt#  38, nband=  4, wtk=  0.00781, kpt= -0.1250  0.2500  0.2500 (reduced coord)
  -0.14989   0.31300   0.24103   0.04231
 kpt#  39, nband=  4, wtk=  0.00781, kpt= -0.3750  0.3750  0.1250 (reduced coord)
   0.03413  -0.01694  -0.16151   0.03540
 kpt#  40, nband=  4, wtk=  0.00781, kpt= -0.2500  0.3750  0.2500 (reduced coord)
  -0.03413   0.01694   0.16151  -0.03540
 kpt#  41, nband=  4, wtk=  0.00781, kpt= -0.1250  0.3750  0.3750 (reduced coord)
  -0.07334   0.06626   0.29046  -0.02430
 kpt#  42, nband=  4, wtk=  0.00781, kpt=  0.5000  0.5000  0.1250 (reduced coord)
   0.06563  -0.08733  -0.05287  -0.03133
 kpt#  43, nband=  4, wtk=  0.00781, kpt= -0.3750  0.5000  0.2500 (reduced coord)
   0.06274   0.01472  -0.07639  -0.26119
 kpt#  44, nband=  4, wtk=  0.00781, kpt= -0.2500  0.5000  0.3750 (reduced coord)
   0.05450  -0.00540   0.01098  -0.17205
 kpt#  45, nband=  4, wtk=  0.00781, kpt= -0.1250  0.5000  0.5000 (reduced coord)
   0.05792  -0.10840   0.18471  -0.08695
 kpt#  46, nband=  4, wtk=  0.00781, kpt=  0.3750 -0.3750  0.1250 (reduced coord)
   0.05450  -0.00540   0.01098  -0.17205
 kpt#  47, nband=  4, wtk=  0.00781, kpt=  0.5000 -0.3750  0.2500 (reduced coord)
   0.02589  -0.03706  -0.07414   0.12454
 kpt#  48, nband=  4, wtk=  0.00781, kpt= -0.3750 -0.3750  0.3750 (reduced coord)
   0.01799   0.07954  -0.17474  -0.02078
 kpt#  49, nband=  4, wtk=  0.00781, kpt= -0.2500 -0.3750  0.5000 (reduced coord)
   0.03895   0.10439  -0.14791  -0.23707
 kpt#  50, nband=  4, wtk=  0.00781, kpt= -0.1250 -0.3750 -0.3750 (reduced coord)
   0.07845  -0.04877  -0.05416  -0.13697
 prteigrs : prtvol=0 or 1, do not print more k-points.
 
 
 Eight components of 2nd-order total energy (hartree) are
 1,2,3: 0th-order hamiltonian combined with 1st-order wavefunctions
     kin0=   2.21582275E+01 eigvalue=  -1.19796310E+00  local=  -1.73372853E+01
 4,5,6: 1st-order hamiltonian combined with 1st and 0th-order wfs
     kin1=  -1.68814512E+01  Hartree=   0.00000000E+00     xc=   0.00000000E+00
 7,8,9: eventually, occupation + non-local contributions
    edocc=   0.00000000E+00     enl0=   4.69236920E+00   enl1=   2.50754707E-01
 1-9 gives the relaxation energy (to be shifted if some occ is /=2.0)
   erelax=  -8.31534826E+00
  No Ewald or frozen-wf contrib.: the relaxation energy is the total one
 2DEtotal=   -0.8315348261E+01 Ha. Also 2DEtotal=   -0.226272133452E+03 eV
    (  non-var. 2DEtotal :   -8.3153482607E+00 Ha)
 
--------------------------------------------------------------------------------
 Perturbation wavevector (in red.coord.)   0.000000  0.000000  0.000000
 Perturbation : derivative vs k along direction   2
 The set of symmetries contains only one element for this perturbation.
 symkpt : not enough symmetry to change the number of k points.
 
--------------------------------------------------------------------------------
 
-inwffil : will read wavefunctions from disk file AlAs_o_DS1_WFK
- newkpt: read input wf with ikpt,npw=   1      69, make ikpt,npw=   1      69
- newkpt: read input wf with ikpt,npw=   1      69, make ikpt,npw=   2      69
- newkpt: read input wf with ikpt,npw=   1      69, make ikpt,npw=   3      69
- newkpt: read input wf with ikpt,npw=   2      74, make ikpt,npw=   4      74
- newkpt: read input wf with ikpt,npw=   3      77, make ikpt,npw=   5      77
- newkpt: read input wf with ikpt,npw=   4      76, make ikpt,npw=   6      76
- newkpt: read input wf with ikpt,npw=   3      77, make ikpt,npw=   7      77
- newkpt: read input wf with ikpt,npw=   3      77, make ikpt,npw=   8      77
- newkpt: read input wf with ikpt,npw=   4      76, make ikpt,npw=   9      76
- newkpt: read input wf with ikpt,npw=   2      74, make ikpt,npw=  10      74
- newkpt: read input wf with ikpt,npw=   4      76, make ikpt,npw=  11      76
- newkpt: read input wf with ikpt,npw=   4      76, make ikpt,npw=  12      76
- newkpt: read input wf with ikpt,npw=   2      74, make ikpt,npw=  13      74
- newkpt: read input wf with ikpt,npw=   5      74, make ikpt,npw=  14      74
- newkpt: read input wf with ikpt,npw=   6      76, make ikpt,npw=  15      76
- newkpt: read input wf with ikpt,npw=   4      76, make ikpt,npw=  16      76
- newkpt: read input wf with ikpt,npw=   7      76, make ikpt,npw=  17      76
- newkpt: read input wf with ikpt,npw=   8      75, make ikpt,npw=  18      75
- newkpt: read input wf with ikpt,npw=   8      75, make ikpt,npw=  19      75
- newkpt: read input wf with ikpt,npw=   7      76, make ikpt,npw=  20      76
- newkpt: read input wf with ikpt,npw=   7      76, make ikpt,npw=  21      76
- newkpt: read input wf with ikpt,npw=   8      75, make ikpt,npw=  22      75
- newkpt: read input wf with ikpt,npw=   8      75, make ikpt,npw=  23      75
- newkpt: read input wf with ikpt,npw=   6      76, make ikpt,npw=  24      76
- newkpt: read input wf with ikpt,npw=   8      75, make ikpt,npw=  25      75
- newkpt: read input wf with ikpt,npw=   8      75, make ikpt,npw=  26      75
- newkpt: read input wf with ikpt,npw=   6      76, make ikpt,npw=  27      76
- newkpt: read input wf with ikpt,npw=   4      76, make ikpt,npw=  28      76
- newkpt: read input wf with ikpt,npw=   5      74, make ikpt,npw=  29      74
- newkpt: read input wf with ikpt,npw=   4      76, make ikpt,npw=  30      76
- newkpt: read input wf with ikpt,npw=   8      75, make ikpt,npw=  31      75
- newkpt: read input wf with ikpt,npw=   8      75, make ikpt,npw=  32      75
- newkpt: read input wf with ikpt,npw=   4      76, make ikpt,npw=  33      76
- newkpt: read input wf with ikpt,npw=   5      74, make ikpt,npw=  34      74
- newkpt: read input wf with ikpt,npw=   9      65, make ikpt,npw=  35      65
- newkpt: read input wf with ikpt,npw=   1      69, make ikpt,npw=  36      69
- newkpt: read input wf with ikpt,npw=   4      76, make ikpt,npw=  37      76
- newkpt: read input wf with ikpt,npw=   3      77, make ikpt,npw=  38      77
- newkpt: read input wf with ikpt,npw=   8      75, make ikpt,npw=  39      75
- newkpt: read input wf with ikpt,npw=   8      75, make ikpt,npw=  40      75
- newkpt: read input wf with ikpt,npw=   7      76, make ikpt,npw=  41      76
- newkpt: read input wf with ikpt,npw=   7      76, make ikpt,npw=  42      76
- newkpt: read input wf with ikpt,npw=   8      75, make ikpt,npw=  43      75
- newkpt: read input wf with ikpt,npw=   8      75, make ikpt,npw=  44      75
- newkpt: read input wf with ikpt,npw=   7      76, make ikpt,npw=  45      76
- newkpt: read input wf with ikpt,npw=   8      75, make ikpt,npw=  46      75
- newkpt: read input wf with ikpt,npw=   8      75, make ikpt,npw=  47      75
- newkpt: read input wf with ikpt,npw=   6      76, make ikpt,npw=  48      76
- newkpt: read input wf with ikpt,npw=   4      76, make ikpt,npw=  49      76
- newkpt: read input wf with ikpt,npw=   3      77, make ikpt,npw=  50      77
- newkpt : prtvol=0 or 1, do not print more k-points.
 
--------------------------------------------------------------------------------
 
-inwffil : will read wavefunctions from disk file AlAs_o_DS1_WFK
- newkpt: read input wf with ikpt,npw=   1      69, make ikpt,npw=   1      69
- newkpt: read input wf with ikpt,npw=   1      69, make ikpt,npw=   2      69
- newkpt: read input wf with ikpt,npw=   1      69, make ikpt,npw=   3      69
- newkpt: read input wf with ikpt,npw=   2      74, make ikpt,npw=   4      74
- newkpt: read input wf with ikpt,npw=   3      77, make ikpt,npw=   5      77
- newkpt: read input wf with ikpt,npw=   4      76, make ikpt,npw=   6      76
- newkpt: read input wf with ikpt,npw=   3      77, make ikpt,npw=   7      77
- newkpt: read input wf with ikpt,npw=   3      77, make ikpt,npw=   8      77
- newkpt: read input wf with ikpt,npw=   4      76, make ikpt,npw=   9      76
- newkpt: read input wf with ikpt,npw=   2      74, make ikpt,npw=  10      74
- newkpt: read input wf with ikpt,npw=   4      76, make ikpt,npw=  11      76
- newkpt: read input wf with ikpt,npw=   4      76, make ikpt,npw=  12      76
- newkpt: read input wf with ikpt,npw=   2      74, make ikpt,npw=  13      74
- newkpt: read input wf with ikpt,npw=   5      74, make ikpt,npw=  14      74
- newkpt: read input wf with ikpt,npw=   6      76, make ikpt,npw=  15      76
- newkpt: read input wf with ikpt,npw=   4      76, make ikpt,npw=  16      76
- newkpt: read input wf with ikpt,npw=   7      76, make ikpt,npw=  17      76
- newkpt: read input wf with ikpt,npw=   8      75, make ikpt,npw=  18      75
- newkpt: read input wf with ikpt,npw=   8      75, make ikpt,npw=  19      75
- newkpt: read input wf with ikpt,npw=   7      76, make ikpt,npw=  20      76
- newkpt: read input wf with ikpt,npw=   7      76, make ikpt,npw=  21      76
- newkpt: read input wf with ikpt,npw=   8      75, make ikpt,npw=  22      75
- newkpt: read input wf with ikpt,npw=   8      75, make ikpt,npw=  23      75
- newkpt: read input wf with ikpt,npw=   6      76, make ikpt,npw=  24      76
- newkpt: read input wf with ikpt,npw=   8      75, make ikpt,npw=  25      75
- newkpt: read input wf with ikpt,npw=   8      75, make ikpt,npw=  26      75
- newkpt: read input wf with ikpt,npw=   6      76, make ikpt,npw=  27      76
- newkpt: read input wf with ikpt,npw=   4      76, make ikpt,npw=  28      76
- newkpt: read input wf with ikpt,npw=   5      74, make ikpt,npw=  29      74
- newkpt: read input wf with ikpt,npw=   4      76, make ikpt,npw=  30      76
- newkpt: read input wf with ikpt,npw=   8      75, make ikpt,npw=  31      75
- newkpt: read input wf with ikpt,npw=   8      75, make ikpt,npw=  32      75
- newkpt: read input wf with ikpt,npw=   4      76, make ikpt,npw=  33      76
- newkpt: read input wf with ikpt,npw=   5      74, make ikpt,npw=  34      74
- newkpt: read input wf with ikpt,npw=   9      65, make ikpt,npw=  35      65
- newkpt: read input wf with ikpt,npw=   1      69, make ikpt,npw=  36      69
- newkpt: read input wf with ikpt,npw=   4      76, make ikpt,npw=  37      76
- newkpt: read input wf with ikpt,npw=   3      77, make ikpt,npw=  38      77
- newkpt: read input wf with ikpt,npw=   8      75, make ikpt,npw=  39      75
- newkpt: read input wf with ikpt,npw=   8      75, make ikpt,npw=  40      75
- newkpt: read input wf with ikpt,npw=   7      76, make ikpt,npw=  41      76
- newkpt: read input wf with ikpt,npw=   7      76, make ikpt,npw=  42      76
- newkpt: read input wf with ikpt,npw=   8      75, make ikpt,npw=  43      75
- newkpt: read input wf with ikpt,npw=   8      75, make ikpt,npw=  44      75
- newkpt: read input wf with ikpt,npw=   7      76, make ikpt,npw=  45      76
- newkpt: read input wf with ikpt,npw=   8      75, make ikpt,npw=  46      75
- newkpt: read input wf with ikpt,npw=   8      75, make ikpt,npw=  47      75
- newkpt: read input wf with ikpt,npw=   6      76, make ikpt,npw=  48      76
- newkpt: read input wf with ikpt,npw=   4      76, make ikpt,npw=  49      76
- newkpt: read input wf with ikpt,npw=   3      77, make ikpt,npw=  50      77
- newkpt : prtvol=0 or 1, do not print more k-points.
 
 Initialisation of the first-order wave-functions :
  ireadwf=   0
P newkpt: treating      4 bands with npw=      69 for ikpt=   1 by node    0
P newkpt: treating      4 bands with npw=      69 for ikpt=   2 by node    0
P newkpt: treating      4 bands with npw=      69 for ikpt=   3 by node    0
P newkpt: treating      4 bands with npw=      74 for ikpt=   4 by node    0
P newkpt: treating      4 bands with npw=      77 for ikpt=   5 by node    0
P newkpt: treating      4 bands with npw=      76 for ikpt=   6 by node    0
P newkpt: treating      4 bands with npw=      77 for ikpt=   7 by node    0
P newkpt: treating      4 bands with npw=      77 for ikpt=   8 by node    0
P newkpt: treating      4 bands with npw=      76 for ikpt=   9 by node    0
P newkpt: treating      4 bands with npw=      74 for ikpt=  10 by node    0
P newkpt: treating      4 bands with npw=      76 for ikpt=  11 by node    0
P newkpt: treating      4 bands with npw=      76 for ikpt=  12 by node    0
P newkpt: treating      4 bands with npw=      74 for ikpt=  13 by node    0
P newkpt: treating      4 bands with npw=      74 for ikpt=  14 by node    0
P newkpt: treating      4 bands with npw=      76 for ikpt=  15 by node    0
P newkpt: treating      4 bands with npw=      76 for ikpt=  16 by node    0
P newkpt: treating      4 bands with npw=      76 for ikpt=  17 by node    0
P newkpt: treating      4 bands with npw=      75 for ikpt=  18 by node    0
P newkpt: treating      4 bands with npw=      75 for ikpt=  19 by node    0
P newkpt: treating      4 bands with npw=      76 for ikpt=  20 by node    0
P newkpt: treating      4 bands with npw=      76 for ikpt=  21 by node    0
P newkpt: treating      4 bands with npw=      75 for ikpt=  22 by node    0
P newkpt: treating      4 bands with npw=      75 for ikpt=  23 by node    0
P newkpt: treating      4 bands with npw=      76 for ikpt=  24 by node    0
P newkpt: treating      4 bands with npw=      75 for ikpt=  25 by node    0
P newkpt: treating      4 bands with npw=      75 for ikpt=  26 by node    0
P newkpt: treating      4 bands with npw=      76 for ikpt=  27 by node    0
P newkpt: treating      4 bands with npw=      76 for ikpt=  28 by node    0
P newkpt: treating      4 bands with npw=      74 for ikpt=  29 by node    0
P newkpt: treating      4 bands with npw=      76 for ikpt=  30 by node    0
P newkpt: treating      4 bands with npw=      75 for ikpt=  31 by node    0
P newkpt: treating      4 bands with npw=      75 for ikpt=  32 by node    0
P newkpt: treating      4 bands with npw=      76 for ikpt=  33 by node    0
P newkpt: treating      4 bands with npw=      74 for ikpt=  34 by node    0
P newkpt: treating      4 bands with npw=      65 for ikpt=  35 by node    0
P newkpt: treating      4 bands with npw=      69 for ikpt=  36 by node    0
P newkpt: treating      4 bands with npw=      76 for ikpt=  37 by node    0
P newkpt: treating      4 bands with npw=      77 for ikpt=  38 by node    0
P newkpt: treating      4 bands with npw=      75 for ikpt=  39 by node    0
P newkpt: treating      4 bands with npw=      75 for ikpt=  40 by node    0
P newkpt: treating      4 bands with npw=      76 for ikpt=  41 by node    0
P newkpt: treating      4 bands with npw=      76 for ikpt=  42 by node    0
P newkpt: treating      4 bands with npw=      75 for ikpt=  43 by node    0
P newkpt: treating      4 bands with npw=      75 for ikpt=  44 by node    0
P newkpt: treating      4 bands with npw=      76 for ikpt=  45 by node    0
P newkpt: treating      4 bands with npw=      75 for ikpt=  46 by node    0
P newkpt: treating      4 bands with npw=      75 for ikpt=  47 by node    0
P newkpt: treating      4 bands with npw=      76 for ikpt=  48 by node    0
P newkpt: treating      4 bands with npw=      76 for ikpt=  49 by node    0
P newkpt: treating      4 bands with npw=      77 for ikpt=  50 by node    0
 newkpt: prtvol=0 or 1, do not print more k-points.
 
 
     iter   2DEtotal(Ha)        deltaE(Ha) residm    vres2
-ETOT  1  -8.3114098397564     -8.311E+00 2.709E-02 0.000E+00
 ETOT  2  -8.3153468862143     -3.937E-03 1.678E-05 0.000E+00
 ETOT  3  -8.3153482597990     -1.374E-06 4.304E-09 0.000E+00
 ETOT  4  -8.3153482606207     -8.218E-10 6.757E-12 0.000E+00
 ETOT  5  -8.3153482606215     -7.709E-13 9.995E-15 0.000E+00
 ETOT  6  -8.3153482606215     -1.243E-14 1.690E-17 0.000E+00
 ETOT  7  -8.3153482606215      0.000E+00 2.558E-20 0.000E+00
 ETOT  8  -8.3153482606215     -5.329E-15 9.944E-23 0.000E+00
 
 At SCF step    8   max residual=  9.94E-23 < tolwfr=  1.00E-22 =>converged.
================================================================================
 
 ----iterations are completed or convergence reached----
 
 Mean square residual over all n,k,spin=   3.5796E-23; max=  9.9435E-23
  -0.1250 -0.2500  0.0000    1  5.65757E-23 kpt; spin; max resid(k); each band:
  5.66E-23 7.54E-24 1.42E-23 5.43E-23
  -0.2500 -0.1250  0.0000    1  1.42358E-23 kpt; spin; max resid(k); each band:
  1.71E-24 1.42E-23 8.52E-24 6.32E-24
  -0.1250 -0.1250  0.1250    1  6.44333E-23 kpt; spin; max resid(k); each band:
  1.77E-23 2.91E-23 6.44E-23 3.02E-23
  -0.1250  0.5000  0.0000    1  5.26283E-23 kpt; spin; max resid(k); each band:
  7.42E-24 2.77E-23 5.26E-23 4.14E-23
  -0.2500 -0.3750  0.0000    1  3.58912E-23 kpt; spin; max resid(k); each band:
  2.59E-23 3.59E-23 1.71E-23 1.56E-23
  -0.1250 -0.3750  0.1250    1  5.98276E-23 kpt; spin; max resid(k); each band:
  5.98E-23 5.79E-23 9.93E-24 4.58E-23
  -0.3750 -0.2500  0.0000    1  1.77408E-23 kpt; spin; max resid(k); each band:
  1.03E-23 1.77E-23 1.72E-23 8.50E-24
  -0.2500 -0.2500  0.1250    1  4.95694E-23 kpt; spin; max resid(k); each band:
  3.53E-23 4.96E-23 6.28E-24 2.46E-23
  -0.1250 -0.2500  0.2500    1  9.85798E-23 kpt; spin; max resid(k); each band:
  9.86E-23 7.44E-24 1.70E-23 8.62E-23
   0.5000 -0.1250  0.0000    1  8.82957E-23 kpt; spin; max resid(k); each band:
  8.83E-23 1.70E-23 2.90E-23 6.46E-23
  -0.3750 -0.1250  0.1250    1  8.52795E-23 kpt; spin; max resid(k); each band:
  3.85E-23 8.53E-23 5.92E-23 5.00E-23
  -0.2500 -0.1250  0.2500    1  7.20302E-23 kpt; spin; max resid(k); each band:
  7.20E-23 4.26E-23 6.45E-24 3.67E-23
  -0.1250 -0.1250  0.3750    1  7.47784E-23 kpt; spin; max resid(k); each band:
  5.16E-23 2.32E-23 9.36E-24 7.48E-23
  -0.1250  0.2500  0.0000    1  3.18712E-23 kpt; spin; max resid(k); each band:
  3.19E-23 2.28E-23 1.66E-23 1.73E-23
  -0.2500  0.3750  0.0000    1  9.19004E-23 kpt; spin; max resid(k); each band:
  3.32E-23 1.28E-23 9.19E-23 2.69E-23
  -0.1250  0.3750  0.1250    1  5.98279E-23 kpt; spin; max resid(k); each band:
  5.98E-23 5.79E-23 9.93E-24 4.58E-23
  -0.3750  0.5000  0.0000    1  7.98163E-23 kpt; spin; max resid(k); each band:
  1.96E-23 7.98E-23 2.52E-23 4.24E-23
  -0.2500  0.5000  0.1250    1  6.63173E-23 kpt; spin; max resid(k); each band:
  6.63E-23 1.51E-23 4.82E-23 1.25E-23
  -0.1250  0.5000  0.2500    1  6.63174E-23 kpt; spin; max resid(k); each band:
  6.63E-23 1.51E-23 4.82E-23 1.25E-23
   0.5000 -0.3750  0.0000    1  3.59483E-23 kpt; spin; max resid(k); each band:
  3.59E-23 3.30E-23 1.41E-23 6.17E-24
  -0.3750 -0.3750  0.1250    1  4.05043E-23 kpt; spin; max resid(k); each band:
  2.95E-23 4.05E-23 1.70E-23 1.73E-23
  -0.2500 -0.3750  0.2500    1  9.61768E-23 kpt; spin; max resid(k); each band:
  6.46E-23 9.62E-23 1.60E-23 8.83E-24
  -0.1250 -0.3750  0.3750    1  5.10274E-23 kpt; spin; max resid(k); each band:
  1.76E-24 1.26E-23 5.10E-23 1.90E-24
   0.3750 -0.2500  0.0000    1  5.20200E-23 kpt; spin; max resid(k); each band:
  4.34E-23 5.20E-23 2.23E-23 4.05E-23
   0.5000 -0.2500  0.1250    1  5.10280E-23 kpt; spin; max resid(k); each band:
  1.76E-24 1.26E-23 5.10E-23 1.90E-24
  -0.3750 -0.2500  0.2500    1  4.50739E-23 kpt; spin; max resid(k); each band:
  1.15E-23 1.68E-23 4.51E-23 8.40E-25
  -0.2500 -0.2500  0.3750    1  6.42183E-23 kpt; spin; max resid(k); each band:
  1.69E-23 6.42E-23 4.08E-23 8.68E-24
  -0.1250 -0.2500  0.5000    1  8.52797E-23 kpt; spin; max resid(k); each band:
  3.85E-23 8.53E-23 5.92E-23 5.00E-23
   0.2500 -0.1250  0.0000    1  8.70532E-23 kpt; spin; max resid(k); each band:
  1.20E-23 6.26E-23 7.03E-23 8.71E-23
   0.3750 -0.1250  0.1250    1  9.85799E-23 kpt; spin; max resid(k); each band:
  9.86E-23 7.44E-24 1.70E-23 8.62E-23
   0.5000 -0.1250  0.2500    1  9.61771E-23 kpt; spin; max resid(k); each band:
  6.46E-23 9.62E-23 1.60E-23 8.83E-24
  -0.3750 -0.1250  0.3750    1  4.50740E-23 kpt; spin; max resid(k); each band:
  1.15E-23 1.68E-23 4.51E-23 8.40E-25
  -0.2500 -0.1250  0.5000    1  7.20301E-23 kpt; spin; max resid(k); each band:
  7.20E-23 4.26E-23 6.45E-24 3.67E-23
  -0.1250 -0.1250 -0.3750    1  5.76319E-23 kpt; spin; max resid(k); each band:
  3.57E-23 2.23E-23 5.76E-23 3.91E-23
  -0.1250  0.0000  0.0000    1  7.65656E-23 kpt; spin; max resid(k); each band:
  7.66E-23 4.95E-23 4.45E-23 3.10E-23
  -0.1250  0.1250  0.1250    1  6.44376E-23 kpt; spin; max resid(k); each band:
  1.77E-23 2.91E-23 6.44E-23 3.02E-23
  -0.2500  0.2500  0.1250    1  9.85795E-23 kpt; spin; max resid(k); each band:
  9.86E-23 7.44E-24 1.70E-23 8.62E-23
  -0.1250  0.2500  0.2500    1  4.95698E-23 kpt; spin; max resid(k); each band:
  3.53E-23 4.96E-23 6.28E-24 2.46E-23
[...]
   2    4   3    2         0.0000000598         0.0000000000
   3    4   3    2        -2.1272289350         0.0000000000
  
  
  
 
  Phonon wavevector (reduced coordinates) :  0.00000  0.00000  0.00000
 Phonon energies in Hartree :
   2.596262E-06  2.597598E-06  2.605370E-06  1.568560E-03  1.568560E-03
   1.568560E-03
 Phonon frequencies in cm-1    :
-  5.698137E-01  5.701069E-01  5.718125E-01  3.442590E+02  3.442590E+02
-  3.442590E+02
 
  Phonon at Gamma, with non-analyticity in the
  direction (cartesian coordinates)  1.00000  0.00000  0.00000
 Phonon energies in Hartree :
   2.597591E-06  2.597598E-06  4.096973E-06  1.568560E-03  1.568560E-03
   1.729575E-03
 Phonon frequencies in cm-1    :
-  5.701054E-01  5.701069E-01  8.991816E-01  3.442590E+02  3.442590E+02
-  3.795979E+02
 
  Phonon at Gamma, with non-analyticity in the
  direction (cartesian coordinates)  0.00000  1.00000  0.00000
 Phonon energies in Hartree :
   2.596262E-06  2.605370E-06  4.092887E-06  1.568560E-03  1.568560E-03
   1.729575E-03
 Phonon frequencies in cm-1    :
-  5.698137E-01  5.718125E-01  8.982849E-01  3.442590E+02  3.442590E+02
-  3.795979E+02
 
  Phonon at Gamma, with non-analyticity in the
  direction (cartesian coordinates)  0.00000  0.00000  1.00000
 Phonon energies in Hartree :
   2.597598E-06  2.604034E-06  4.092878E-06  1.568560E-03  1.568560E-03
   1.729575E-03
 Phonon frequencies in cm-1    :
-  5.701069E-01  5.715193E-01  8.982829E-01  3.442590E+02  3.442590E+02
-  3.795979E+02
 
== END DATASET(S) ==============================================================
================================================================================
  
 -outvars: echo values of variables after computation  --------
            acell      1.0610000000E+01  1.0610000000E+01  1.0610000000E+01 Bohr
              amu      2.69815390E+01  7.49215900E+01
           diemac      9.00000000E+00
             ecut      3.00000000E+00 Hartree
           etotal1    -9.7626837450E+00
           etotal2    -8.3153482605E+00
           etotal3    -2.1900832915E+02
            fcart1     0.0000000000E+00  0.0000000000E+00  0.0000000000E+00
                       0.0000000000E+00  0.0000000000E+00  0.0000000000E+00
            fcart3     0.0000000000E+00  0.0000000000E+00  0.0000000000E+00
                       0.0000000000E+00  0.0000000000E+00  0.0000000000E+00
-          fftalg         312
           getddk1          0
           getddk2          0
           getddk3          2
           getwfk1          0
           getwfk2          1
           getwfk3          1
             iscf1          5
             iscf2         -3
             iscf3          5
           jdtset        1    2    3
              kpt1    -1.25000000E-01 -2.50000000E-01  0.00000000E+00
                      -1.25000000E-01  5.00000000E-01  0.00000000E+00
                      -2.50000000E-01 -3.75000000E-01  0.00000000E+00
                      -1.25000000E-01 -3.75000000E-01  1.25000000E-01
                      -1.25000000E-01  2.50000000E-01  0.00000000E+00
                      -2.50000000E-01  3.75000000E-01  0.00000000E+00
                      -3.75000000E-01  5.00000000E-01  0.00000000E+00
                      -2.50000000E-01  5.00000000E-01  1.25000000E-01
                      -1.25000000E-01  0.00000000E+00  0.00000000E+00
                      -3.75000000E-01  0.00000000E+00  0.00000000E+00
              kpt2    -1.25000000E-01 -2.50000000E-01  0.00000000E+00
                      -2.50000000E-01 -1.25000000E-01  0.00000000E+00
                      -1.25000000E-01 -1.25000000E-01  1.25000000E-01
                      -1.25000000E-01  5.00000000E-01  0.00000000E+00
                      -2.50000000E-01 -3.75000000E-01  0.00000000E+00
                      -1.25000000E-01 -3.75000000E-01  1.25000000E-01
                      -3.75000000E-01 -2.50000000E-01  0.00000000E+00
                      -2.50000000E-01 -2.50000000E-01  1.25000000E-01
                      -1.25000000E-01 -2.50000000E-01  2.50000000E-01
                       5.00000000E-01 -1.25000000E-01  0.00000000E+00
                      -3.75000000E-01 -1.25000000E-01  1.25000000E-01
                      -2.50000000E-01 -1.25000000E-01  2.50000000E-01
                      -1.25000000E-01 -1.25000000E-01  3.75000000E-01
                      -1.25000000E-01  2.50000000E-01  0.00000000E+00
                      -2.50000000E-01  3.75000000E-01  0.00000000E+00
                      -1.25000000E-01  3.75000000E-01  1.25000000E-01
                      -3.75000000E-01  5.00000000E-01  0.00000000E+00
                      -2.50000000E-01  5.00000000E-01  1.25000000E-01
                      -1.25000000E-01  5.00000000E-01  2.50000000E-01
                       5.00000000E-01 -3.75000000E-01  0.00000000E+00
                      -3.75000000E-01 -3.75000000E-01  1.25000000E-01
                      -2.50000000E-01 -3.75000000E-01  2.50000000E-01
                      -1.25000000E-01 -3.75000000E-01  3.75000000E-01
                       3.75000000E-01 -2.50000000E-01  0.00000000E+00
                       5.00000000E-01 -2.50000000E-01  1.25000000E-01
                      -3.75000000E-01 -2.50000000E-01  2.50000000E-01
                      -2.50000000E-01 -2.50000000E-01  3.75000000E-01
                      -1.25000000E-01 -2.50000000E-01  5.00000000E-01
                       2.50000000E-01 -1.25000000E-01  0.00000000E+00
                       3.75000000E-01 -1.25000000E-01  1.25000000E-01
                       5.00000000E-01 -1.25000000E-01  2.50000000E-01
                      -3.75000000E-01 -1.25000000E-01  3.75000000E-01
                      -2.50000000E-01 -1.25000000E-01  5.00000000E-01
                      -1.25000000E-01 -1.25000000E-01 -3.75000000E-01
                      -1.25000000E-01  0.00000000E+00  0.00000000E+00
                      -1.25000000E-01  1.25000000E-01  1.25000000E-01
                      -2.50000000E-01  2.50000000E-01  1.25000000E-01
                      -1.25000000E-01  2.50000000E-01  2.50000000E-01
                      -3.75000000E-01  3.75000000E-01  1.25000000E-01
                      -2.50000000E-01  3.75000000E-01  2.50000000E-01
                      -1.25000000E-01  3.75000000E-01  3.75000000E-01
                       5.00000000E-01  5.00000000E-01  1.25000000E-01
                      -3.75000000E-01  5.00000000E-01  2.50000000E-01
                      -2.50000000E-01  5.00000000E-01  3.75000000E-01
                      -1.25000000E-01  5.00000000E-01  5.00000000E-01
                       3.75000000E-01 -3.75000000E-01  1.25000000E-01
                       5.00000000E-01 -3.75000000E-01  2.50000000E-01
                      -3.75000000E-01 -3.75000000E-01  3.75000000E-01
                      -2.50000000E-01 -3.75000000E-01  5.00000000E-01
                      -1.25000000E-01 -3.75000000E-01 -3.75000000E-01
              kpt3    -1.25000000E-01 -2.50000000E-01  0.00000000E+00
                      -2.50000000E-01 -1.25000000E-01  0.00000000E+00
                      -1.25000000E-01 -1.25000000E-01  1.25000000E-01
                      -1.25000000E-01  5.00000000E-01  0.00000000E+00
                      -2.50000000E-01 -3.75000000E-01  0.00000000E+00
                      -1.25000000E-01 -3.75000000E-01  1.25000000E-01
                      -3.75000000E-01 -2.50000000E-01  0.00000000E+00
                      -2.50000000E-01 -2.50000000E-01  1.25000000E-01
                      -1.25000000E-01 -2.50000000E-01  2.50000000E-01
                       5.00000000E-01 -1.25000000E-01  0.00000000E+00
                      -3.75000000E-01 -1.25000000E-01  1.25000000E-01
                      -2.50000000E-01 -1.25000000E-01  2.50000000E-01
                      -1.25000000E-01 -1.25000000E-01  3.75000000E-01
                      -1.25000000E-01  2.50000000E-01  0.00000000E+00
                      -2.50000000E-01  3.75000000E-01  0.00000000E+00
                      -1.25000000E-01  3.75000000E-01  1.25000000E-01
                      -3.75000000E-01  5.00000000E-01  0.00000000E+00
                      -2.50000000E-01  5.00000000E-01  1.25000000E-01
                      -1.25000000E-01  5.00000000E-01  2.50000000E-01
                       5.00000000E-01 -3.75000000E-01  0.00000000E+00
                      -3.75000000E-01 -3.75000000E-01  1.25000000E-01
                      -2.50000000E-01 -3.75000000E-01  2.50000000E-01
                      -1.25000000E-01 -3.75000000E-01  3.75000000E-01
                       3.75000000E-01 -2.50000000E-01  0.00000000E+00
                       5.00000000E-01 -2.50000000E-01  1.25000000E-01
                      -3.75000000E-01 -2.50000000E-01  2.50000000E-01
                      -2.50000000E-01 -2.50000000E-01  3.75000000E-01
                      -1.25000000E-01 -2.50000000E-01  5.00000000E-01
                       2.50000000E-01 -1.25000000E-01  0.00000000E+00
                       3.75000000E-01 -1.25000000E-01  1.25000000E-01
                       5.00000000E-01 -1.25000000E-01  2.50000000E-01
                      -3.75000000E-01 -1.25000000E-01  3.75000000E-01
                      -2.50000000E-01 -1.25000000E-01  5.00000000E-01
                      -1.25000000E-01 -1.25000000E-01 -3.75000000E-01
                      -1.25000000E-01  0.00000000E+00  0.00000000E+00
                      -1.25000000E-01  1.25000000E-01  1.25000000E-01
                      -2.50000000E-01  2.50000000E-01  1.25000000E-01
                      -1.25000000E-01  2.50000000E-01  2.50000000E-01
                      -3.75000000E-01  3.75000000E-01  1.25000000E-01
                      -2.50000000E-01  3.75000000E-01  2.50000000E-01
                      -1.25000000E-01  3.75000000E-01  3.75000000E-01
                       5.00000000E-01  5.00000000E-01  1.25000000E-01
                      -3.75000000E-01  5.00000000E-01  2.50000000E-01
                      -2.50000000E-01  5.00000000E-01  3.75000000E-01
                      -1.25000000E-01  5.00000000E-01  5.00000000E-01
                       3.75000000E-01 -3.75000000E-01  1.25000000E-01
                       5.00000000E-01 -3.75000000E-01  2.50000000E-01
                      -3.75000000E-01 -3.75000000E-01  3.75000000E-01
                      -2.50000000E-01 -3.75000000E-01  5.00000000E-01
                      -1.25000000E-01 -3.75000000E-01 -3.75000000E-01
                       outvar_i_n : Printing only first  50 k-points.
           kptopt1          1
           kptopt2          2
           kptopt3          2
         kptrlatt        4   -4    4     -4    4    4     -4   -4    4
          kptrlen      4.24400000E+01
P           mkmem1          5
P           mkmem2         64
P           mkmem3         64
P          mkqmem1          5
P          mkqmem2         64
P          mkqmem3         64
P          mk1mem1          5
P          mk1mem2         64
P          mk1mem3         64
            natom           2
            nband1          4
            nband2          4
            nband3          4
           ndtset           3
            ngfft          12      12      12
             nkpt1         10
             nkpt2        128
             nkpt3        128
             nqpt1          0
             nqpt2          1
             nqpt3          1
            nstep          25
             nsym          24
           ntypat           2
              occ1     2.000000  2.000000  2.000000  2.000000
              occ2     2.000000  2.000000  2.000000  2.000000
              occ3     2.000000  2.000000  2.000000  2.000000
        optdriver1          0
        optdriver2          1
        optdriver3          1
        optforces           1
          rfatpol           1       2
            rfdir           1       1       1
           rfelfd1          0
           rfelfd2          2
           rfelfd3          3
           rfphon1          0
           rfphon2          0
           rfphon3          1
            rprim      0.0000000000E+00  5.0000000000E-01  5.0000000000E-01
                       5.0000000000E-01  0.0000000000E+00  5.0000000000E-01
                       5.0000000000E-01  5.0000000000E-01  0.0000000000E+00
           shiftk      5.00000000E-01  5.00000000E-01  5.00000000E-01
          spgroup         216
           strten1     2.8820331613E-04  2.8820331613E-04  2.8820331613E-04
                       0.0000000000E+00  0.0000000000E+00  0.0000000000E+00
           strten3     0.0000000000E+00  0.0000000000E+00  0.0000000000E+00
                       0.0000000000E+00  0.0000000000E+00  0.0000000000E+00
           symrel      1  0  0   0  1  0   0  0  1       0 -1  1   0 -1  0   1 -1  0
                      -1  0  0  -1  0  1  -1  1  0       0  1 -1   1  0 -1   0  0 -1
                      -1  0  0  -1  1  0  -1  0  1       0 -1  1   1 -1  0   0 -1  0
                       1  0  0   0  0  1   0  1  0       0  1 -1   0  0 -1   1  0 -1
                      -1  0  1  -1  1  0  -1  0  0       0 -1  0   1 -1  0   0 -1  1
                       1  0 -1   0  0 -1   0  1 -1       0  1  0   0  0  1   1  0  0
                       1  0 -1   0  1 -1   0  0 -1       0 -1  0   0 -1  1   1 -1  0
                      -1  0  1  -1  0  0  -1  1  0       0  1  0   1  0  0   0  0  1
                       0  0 -1   0  1 -1   1  0 -1       1 -1  0   0 -1  1   0 -1  0
                       0  0  1   1  0  0   0  1  0      -1  1  0  -1  0  0  -1  0  1
                       0  0  1   0  1  0   1  0  0       1 -1  0   0 -1  0   0 -1  1
                       0  0 -1   1  0 -1   0  1 -1      -1  1  0  -1  0  1  -1  0  0
           tolvrs1     1.00000000E-18
           tolvrs2     0.00000000E+00
           tolvrs3     1.00000000E-08
           tolwfr1     0.00000000E+00
           tolwfr2     1.00000000E-22
           tolwfr3     0.00000000E+00
            typat      1  2
              wtk1       0.09375    0.09375    0.09375    0.18750    0.09375    0.09375
                         0.09375    0.18750    0.03125    0.03125
              wtk2       0.00781    0.00781    0.00781    0.00781    0.00781    0.00781
                         0.00781    0.00781    0.00781    0.00781    0.00781    0.00781
                         0.00781    0.00781    0.00781    0.00781    0.00781    0.00781
                         0.00781    0.00781    0.00781    0.00781    0.00781    0.00781
                         0.00781    0.00781    0.00781    0.00781    0.00781    0.00781
                         0.00781    0.00781    0.00781    0.00781    0.00781    0.00781
                         0.00781    0.00781    0.00781    0.00781    0.00781    0.00781
                         0.00781    0.00781    0.00781    0.00781    0.00781    0.00781
                         0.00781    0.00781
              wtk3       0.00781    0.00781    0.00781    0.00781    0.00781    0.00781
                         0.00781    0.00781    0.00781    0.00781    0.00781    0.00781
                         0.00781    0.00781    0.00781    0.00781    0.00781    0.00781
                         0.00781    0.00781    0.00781    0.00781    0.00781    0.00781
                         0.00781    0.00781    0.00781    0.00781    0.00781    0.00781
                         0.00781    0.00781    0.00781    0.00781    0.00781    0.00781
                         0.00781    0.00781    0.00781    0.00781    0.00781    0.00781
                         0.00781    0.00781    0.00781    0.00781    0.00781    0.00781
                         0.00781    0.00781
                       outvars : Printing only first  50 k-points.
           xangst      0.0000000000E+00  0.0000000000E+00  0.0000000000E+00
                       1.4036425458E+00  1.4036425458E+00  1.4036425458E+00
            xcart      0.0000000000E+00  0.0000000000E+00  0.0000000000E+00
                       2.6525000000E+00  2.6525000000E+00  2.6525000000E+00
             xred      0.0000000000E+00  0.0000000000E+00  0.0000000000E+00
                       2.5000000000E-01  2.5000000000E-01  2.5000000000E-01
            znucl       13.00000   33.00000
 
================================================================================


- Timing analysis has been suppressed with timopt=0



================================================================================

 Suggested references for the acknowledgment of ABINIT usage.

 The users of ABINIT have little formal obligations with respect to the ABINIT group
 (those specified in the GNU General Public License, http://www.gnu.org/copyleft/gpl.txt).
 However, it is common practice in the scientific literature,
 to acknowledge the efforts of people that have made the research possible.
 In this spirit, please find below suggested citations of work written by ABINIT developers,
 corresponding to implementations inside of ABINIT that you have used in the present run.
 Note also that it will be of great value to readers of publications presenting these results,
 to read papers enabling them to understand the theoretical formalism and details
 of the ABINIT implementation.
 For information on why they are suggested, see also http://www.abinit.org/about/?text=acknowledgments.

 [1] First-principles responses of solids to atomic displacements and homogeneous electric fields:,
 implementation of a conjugate-gradient algorithm. X. Gonze, Phys. Rev. B55, 10337 (1997).
 Comment : Non-vanishing rfphon and/or rfelfd, in the norm-conserving case.

 [2] Dynamical matrices, Born effective charges, dielectric permittivity tensors, and ,
 interatomic force constants from density-functional perturbation theory,
 X. Gonze and C. Lee, Phys. Rev. B55, 10355 (1997).
 Comment : Non-vanishing rfphon and/or rfelfd, in the norm-conserving case.

 [3] Ab initio pseudopotentials for electronic structure calculations of poly-atomic systems, 
 using density-functional theory.
 M. Fuchs, M. Scheffler, Comput. Phys. Commun. 119, 67 (1999).
 Comment : Some pseudopotential generated using the FHI code were used.

 [4] ABINIT : First-principles approach of materials and nanosystem properties.
 X. Gonze, B. Amadon, P.-M. Anglade, J.-M. Beuken, F. Bottin, P. Boulanger, F. Bruneval,
 D. Caliste, R. Caracas, M. Cote, T. Deutsch, L. Genovese, Ph. Ghosez, M. Giantomassi
 S. Goedecker, D.R. Hamann, P. Hermet, F. Jollet, G. Jomard, S. Leroux, M. Mancini, S. Mazevet,
 M.J.T. Oliveira, G. Onida, Y. Pouillon, T. Rangel, G.-M. Rignanese, D. Sangalli, R. Shaltaf,
 M. Torrent, M.J. Verstraete, G. Zerah, J.W. Zwanziger
 Computer Phys. Comm. 180, 2582-2615 (2009).
 Comment : the third generic paper describing the ABINIT project.
 Note that a version of this paper, that is not formatted for Computer Phys. Comm. 
 is available at http://www.abinit.org/about/ABINIT_CPC_v10.pdf .
 The licence allows the authors to put it on the Web.

 [5] A brief introduction to the ABINIT software package.
 X. Gonze, G.-M. Rignanese, M. Verstraete, J.-M. Beuken, Y. Pouillon, R. Caracas, F. Jollet,
 M. Torrent, G. Zerah, M. Mikami, Ph. Ghosez, M. Veithen, J.-Y. Raty, V. Olevano, F. Bruneval,
 L. Reining, R. Godby, G. Onida, D.R. Hamann, and D.C. Allan.
 Z. Kristallogr. 220, 558-562 (2005).
 Comment : the second generic paper describing the ABINIT project. Note that this paper
 should be cited especially if you are using the GW part of ABINIT, as several authors
 of this part are not in the list of authors of the first or third paper.
 The .pdf of the latter paper is available at http://www.abinit.org/about/zfk_0505-06_558-562.pdf.
 Note that it should not redistributed (Copyright by Oldenburg Wissenshaftverlag,
 the licence allows the authors to put it on the Web).
-
- Proc.   0 individual time (sec): cpu=          9.1  wall=          9.2
 
================================================================================
 
 Calculation completed.
.Delivered    1 WARNINGs and   0 COMMENTs to log file.
+Overall time at end (sec) : cpu=         18.2  wall=         18.3
