
.Version 7.8.2 of ABINIT 
.(MPI version, prepared for a x86_64_linux_intel14.0 computer) 

.Copyright (C) 1998-2014 ABINIT group . 
 ABINIT comes with ABSOLUTELY NO WARRANTY.
 It is free software, and you are welcome to redistribute it
 under certain conditions (GNU General Public License,
 see ~abinit/COPYING or http://www.gnu.org/copyleft/gpl.txt).

 ABINIT is a project of the Universite Catholique de Louvain,
 Corning Inc. and other collaborators, see ~abinit/doc/developers/contributors.txt .
 Please read ~abinit/doc/users/acknowledgments.html for suggested
 acknowledgments of the ABINIT effort.
 For more information, see http://www.abinit.org .

.Starting date : Sat 14 May 2016.
- ( at 12h01 )
  
- input  file    -> BaTiO3.in
- output file    -> BaTiO3.out
- root for input  files -> BaTiO3_i
- root for output files -> BaTiO3_o
 
 
 DATASET    1 : space group Pm -3 m (#221); Bravais cP (primitive cubic)
================================================================================
 Values of the parameters that define the memory need for DATASET  1.
   intxc =         0  ionmov =         0    iscf =         5 xclevel =         1
  lmnmax =         2   lnmax =         2   mband =        18  mffmem =         1
P  mgfft =        48   mkmem =         1 mpssoang=         3     mpw =      5984
  mqgrid =      3001   natom =         5    nfft =    110592    nkpt =        10
  nloalg =         4  nspden =         1 nspinor =         1  nsppol =         1
    nsym =        48  n1xccc =      2501  ntypat =         3  occopt =         7
================================================================================
P This job should need less than                      31.232 Mbytes of memory.
  Rough estimation (10% accuracy) of disk space for files :
_ WF disk file :     16.438 Mbytes ; DEN or POT disk file :      0.846 Mbytes.
================================================================================
 
 
 DATASET    2 : space group Pm -3 m (#221); Bravais cP (primitive cubic)
================================================================================
 Values of the parameters that define the memory need for DATASET  2 (RF).
   intxc =         0    iscf =        -3 xclevel =         1  lmnmax =         2
   lnmax =         2   mband =        18  mffmem =         1   mgfft =        48
P  mkmem =         2  mkqmem =         2  mk1mem =         2 mpssoang=         3
     mpw =      6031  mqgrid =      3001   natom =         5    nfft =    110592
    nkpt =        36  nloalg =         4  nspden =         1 nspinor =         1
  nsppol =         1    nsym =        48  n1xccc =      2501  ntypat =         3
  occopt =         7
================================================================================
P This job should need less than                      36.102 Mbytes of memory.
  Rough estimation (10% accuracy) of disk space for files :
_ WF disk file :     59.635 Mbytes ; DEN or POT disk file :      0.846 Mbytes.
================================================================================
 
 
 DATASET    3 : space group Pm -3 m (#221); Bravais cP (primitive cubic)
================================================================================
 Values of the parameters that define the memory need for DATASET  3 (RF).
   intxc =         0    iscf =         5 xclevel =         1  lmnmax =         2
   lnmax =         2   mband =        18  mffmem =         1   mgfft =        48
P  mkmem =         2  mkqmem =         2  mk1mem =         2 mpssoang=         3
     mpw =      6031  mqgrid =      3001   natom =         5    nfft =    110592
    nkpt =        36  nloalg =         4  nspden =         1 nspinor =         1
  nsppol =         1    nsym =        48  n1xccc =      2501  ntypat =         3
  occopt =         7
================================================================================
P This job should need less than                      44.539 Mbytes of memory.
  Rough estimation (10% accuracy) of disk space for files :
_ WF disk file :     59.635 Mbytes ; DEN or POT disk file :      0.846 Mbytes.
================================================================================
 
--------------------------------------------------------------------------------
------------- Echo of variables that govern the present computation ------------
--------------------------------------------------------------------------------
-
- outvars: echo of selected default values                                      
-   accesswff0 =  0 , fftalg0 =312 , wfoptalg0 =  0
-
- outvars: echo of global parameters not present in the input file              
-  max_nthreads =    0
-
 -outvars: echo values of preprocessed input variables --------
            acell      1.0000000000E+00  1.0000000000E+00  1.0000000000E+00 Bohr
              amu      1.59994000E+01  1.37327000E+02  4.78800000E+01
           diemac      9.00000000E+00
             ecut      4.00000000E+01 Hartree
-          fftalg         312
           getddk1          0
           getddk2          0
           getddk3          2
           getwfk1          0
           getwfk2          1
           getwfk3          1
             iscf1          5
             iscf2         -3
             iscf3          5
           istwfk1       2    0    3    0    0    7    0    0    0    9
           istwfk2       1    0    1    0    0    0    0    1    0    1
                         0    0    0    0    0    0    0    0    0    0
                         0    0    0    0    0    0    1    0    1    0
                         0    0    0    1    0    1
           istwfk3       1    0    1    0    0    0    0    1    0    1
                         0    0    0    0    0    0    0    0    0    0
                         0    0    0    0    0    0    1    0    1    0
                         0    0    0    1    0    1
           jdtset        1    2    3
              kpt1     0.00000000E+00  0.00000000E+00  0.00000000E+00
                       2.50000000E-01  0.00000000E+00  0.00000000E+00
                       5.00000000E-01  0.00000000E+00  0.00000000E+00
                       2.50000000E-01  2.50000000E-01  0.00000000E+00
                       5.00000000E-01  2.50000000E-01  0.00000000E+00
                       5.00000000E-01  5.00000000E-01  0.00000000E+00
                       2.50000000E-01  2.50000000E-01  2.50000000E-01
                       5.00000000E-01  2.50000000E-01  2.50000000E-01
                       5.00000000E-01  5.00000000E-01  2.50000000E-01
                       5.00000000E-01  5.00000000E-01  5.00000000E-01
              kpt2     0.00000000E+00  0.00000000E+00  0.00000000E+00
                       2.50000000E-01  0.00000000E+00  0.00000000E+00
                       5.00000000E-01  0.00000000E+00  0.00000000E+00
                       0.00000000E+00  2.50000000E-01  0.00000000E+00
                       2.50000000E-01  2.50000000E-01  0.00000000E+00
                       5.00000000E-01  2.50000000E-01  0.00000000E+00
                      -2.50000000E-01  2.50000000E-01  0.00000000E+00
                       0.00000000E+00  5.00000000E-01  0.00000000E+00
                       2.50000000E-01  5.00000000E-01  0.00000000E+00
                       5.00000000E-01  5.00000000E-01  0.00000000E+00
                       0.00000000E+00  0.00000000E+00  2.50000000E-01
                       2.50000000E-01  0.00000000E+00  2.50000000E-01
                       5.00000000E-01  0.00000000E+00  2.50000000E-01
                      -2.50000000E-01  0.00000000E+00  2.50000000E-01
                       0.00000000E+00  2.50000000E-01  2.50000000E-01
                       2.50000000E-01  2.50000000E-01  2.50000000E-01
                       5.00000000E-01  2.50000000E-01  2.50000000E-01
                      -2.50000000E-01  2.50000000E-01  2.50000000E-01
                       0.00000000E+00  5.00000000E-01  2.50000000E-01
                       2.50000000E-01  5.00000000E-01  2.50000000E-01
                       5.00000000E-01  5.00000000E-01  2.50000000E-01
                      -2.50000000E-01  5.00000000E-01  2.50000000E-01
                       0.00000000E+00 -2.50000000E-01  2.50000000E-01
                       2.50000000E-01 -2.50000000E-01  2.50000000E-01
                       5.00000000E-01 -2.50000000E-01  2.50000000E-01
                      -2.50000000E-01 -2.50000000E-01  2.50000000E-01
                       0.00000000E+00  0.00000000E+00  5.00000000E-01
                       2.50000000E-01  0.00000000E+00  5.00000000E-01
                       5.00000000E-01  0.00000000E+00  5.00000000E-01
                       0.00000000E+00  2.50000000E-01  5.00000000E-01
                       2.50000000E-01  2.50000000E-01  5.00000000E-01
                       5.00000000E-01  2.50000000E-01  5.00000000E-01
                      -2.50000000E-01  2.50000000E-01  5.00000000E-01
                       0.00000000E+00  5.00000000E-01  5.00000000E-01
                       2.50000000E-01  5.00000000E-01  5.00000000E-01
                       5.00000000E-01  5.00000000E-01  5.00000000E-01
              kpt3     0.00000000E+00  0.00000000E+00  0.00000000E+00
                       2.50000000E-01  0.00000000E+00  0.00000000E+00
                       5.00000000E-01  0.00000000E+00  0.00000000E+00
                       0.00000000E+00  2.50000000E-01  0.00000000E+00
                       2.50000000E-01  2.50000000E-01  0.00000000E+00
                       5.00000000E-01  2.50000000E-01  0.00000000E+00
                      -2.50000000E-01  2.50000000E-01  0.00000000E+00
                       0.00000000E+00  5.00000000E-01  0.00000000E+00
                       2.50000000E-01  5.00000000E-01  0.00000000E+00
                       5.00000000E-01  5.00000000E-01  0.00000000E+00
                       0.00000000E+00  0.00000000E+00  2.50000000E-01
                       2.50000000E-01  0.00000000E+00  2.50000000E-01
                       5.00000000E-01  0.00000000E+00  2.50000000E-01
                      -2.50000000E-01  0.00000000E+00  2.50000000E-01
                       0.00000000E+00  2.50000000E-01  2.50000000E-01
                       2.50000000E-01  2.50000000E-01  2.50000000E-01
                       5.00000000E-01  2.50000000E-01  2.50000000E-01
                      -2.50000000E-01  2.50000000E-01  2.50000000E-01
                       0.00000000E+00  5.00000000E-01  2.50000000E-01
                       2.50000000E-01  5.00000000E-01  2.50000000E-01
                       5.00000000E-01  5.00000000E-01  2.50000000E-01
                      -2.50000000E-01  5.00000000E-01  2.50000000E-01
                       0.00000000E+00 -2.50000000E-01  2.50000000E-01
                       2.50000000E-01 -2.50000000E-01  2.50000000E-01
                       5.00000000E-01 -2.50000000E-01  2.50000000E-01
                      -2.50000000E-01 -2.50000000E-01  2.50000000E-01
                       0.00000000E+00  0.00000000E+00  5.00000000E-01
                       2.50000000E-01  0.00000000E+00  5.00000000E-01
                       5.00000000E-01  0.00000000E+00  5.00000000E-01
                       0.00000000E+00  2.50000000E-01  5.00000000E-01
                       2.50000000E-01  2.50000000E-01  5.00000000E-01
                       5.00000000E-01  2.50000000E-01  5.00000000E-01
                      -2.50000000E-01  2.50000000E-01  5.00000000E-01
                       0.00000000E+00  5.00000000E-01  5.00000000E-01
                       2.50000000E-01  5.00000000E-01  5.00000000E-01
                       5.00000000E-01  5.00000000E-01  5.00000000E-01
           kptopt1          1
           kptopt2          2
           kptopt3          2
         kptrlatt        4    0    0      0    4    0      0    0    4
          kptrlen      3.16034681E+01
P           mkmem1          1
P           mkmem2          2
P           mkmem3          2
P          mkqmem1          1
P          mkqmem2          2
P          mkqmem3          2
P          mk1mem1          1
P          mk1mem2          2
P          mk1mem3          2
            natom           5
            nband1         18
            nband2         18
            nband3         18
           nbdbuf1          0
           nbdbuf2          2
           nbdbuf3          2
           ndtset           3
            ngfft          48      48      48
             nkpt1         10
             nkpt2         36
             nkpt3         36
             nqpt1          0
             nqpt2          1
             nqpt3          1
            nstep         150
             nsym          48
           ntypat           3
              occ1     2.000000  2.000000  2.000000  2.000000  2.000000  2.000000
                       2.000000  2.000000  2.000000  2.000000  2.000000  2.000000
                       2.000000  2.000000  2.000000  0.000000  0.000000  0.000000
                       2.000000  2.000000  2.000000  2.000000  2.000000  2.000000
                       2.000000  2.000000  2.000000  2.000000  2.000000  2.000000
                       2.000000  2.000000  2.000000  0.000000  0.000000  0.000000
                       2.000000  2.000000  2.000000  2.000000  2.000000  2.000000
                       2.000000  2.000000  2.000000  2.000000  2.000000  2.000000
                       2.000000  2.000000  2.000000  0.000000  0.000000  0.000000
                       2.000000  2.000000  2.000000  2.000000  2.000000  2.000000
                       2.000000  2.000000  2.000000  2.000000  2.000000  2.000000
                       2.000000  2.000000  2.000000  0.000000  0.000000  0.000000
                       2.000000  2.000000  2.000000  2.000000  2.000000  2.000000
                       2.000000  2.000000  2.000000  2.000000  2.000000  2.000000
                       2.000000  2.000000  2.000000  0.000000  0.000000  0.000000
                       2.000000  2.000000  2.000000  2.000000  2.000000  2.000000
                       2.000000  2.000000  2.000000  2.000000  2.000000  2.000000
                       2.000000  2.000000  2.000000  0.000000  0.000000  0.000000
                       2.000000  2.000000  2.000000  2.000000  2.000000  2.000000
                       2.000000  2.000000  2.000000  2.000000  2.000000  2.000000
                       2.000000  2.000000  2.000000  0.000000  0.000000  0.000000
                       2.000000  2.000000  2.000000  2.000000  2.000000  2.000000
                       2.000000  2.000000  2.000000  2.000000  2.000000  2.000000
                       2.000000  2.000000  2.000000  0.000000  0.000000  0.000000
                       2.000000  2.000000  2.000000  2.000000  2.000000  2.000000
                       2.000000  2.000000  2.000000  2.000000  2.000000  2.000000
                       2.000000  2.000000  2.000000  0.000000  0.000000  0.000000
                       2.000000  2.000000  2.000000  2.000000  2.000000  2.000000
                       2.000000  2.000000  2.000000  2.000000  2.000000  2.000000
                       2.000000  2.000000  2.000000  0.000000  0.000000  0.000000
              occ2     2.000000  2.000000  2.000000  2.000000  2.000000  2.000000
                       2.000000  2.000000  2.000000  2.000000  2.000000  2.000000
                       2.000000  2.000000  2.000000  0.000000  0.000000  0.000000
                       2.000000  2.000000  2.000000  2.000000  2.000000  2.000000
                       2.000000  2.000000  2.000000  2.000000  2.000000  2.000000
                       2.000000  2.000000  2.000000  0.000000  0.000000  0.000000
                       2.000000  2.000000  2.000000  2.000000  2.000000  2.000000
                       2.000000  2.000000  2.000000  2.000000  2.000000  2.000000
                       2.000000  2.000000  2.000000  0.000000  0.000000  0.000000
                       2.000000  2.000000  2.000000  2.000000  2.000000  2.000000
                       2.000000  2.000000  2.000000  2.000000  2.000000  2.000000
                       2.000000  2.000000  2.000000  0.000000  0.000000  0.000000
                       2.000000  2.000000  2.000000  2.000000  2.000000  2.000000
                       2.000000  2.000000  2.000000  2.000000  2.000000  2.000000
                       2.000000  2.000000  2.000000  0.000000  0.000000  0.000000
                       2.000000  2.000000  2.000000  2.000000  2.000000  2.000000
                       2.000000  2.000000  2.000000  2.000000  2.000000  2.000000
                       2.000000  2.000000  2.000000  0.000000  0.000000  0.000000
                       2.000000  2.000000  2.000000  2.000000  2.000000  2.000000
                       2.000000  2.000000  2.000000  2.000000  2.000000  2.000000
                       2.000000  2.000000  2.000000  0.000000  0.000000  0.000000
                       2.000000  2.000000  2.000000  2.000000  2.000000  2.000000
                       2.000000  2.000000  2.000000  2.000000  2.000000  2.000000
                       2.000000  2.000000  2.000000  0.000000  0.000000  0.000000
                       2.000000  2.000000  2.000000  2.000000  2.000000  2.000000
                       2.000000  2.000000  2.000000  2.000000  2.000000  2.000000
                       2.000000  2.000000  2.000000  0.000000  0.000000  0.000000
                       2.000000  2.000000  2.000000  2.000000  2.000000  2.000000
                       2.000000  2.000000  2.000000  2.000000  2.000000  2.000000
                       2.000000  2.000000  2.000000  0.000000  0.000000  0.000000
                       2.000000  2.000000  2.000000  2.000000  2.000000  2.000000
                       2.000000  2.000000  2.000000  2.000000  2.000000  2.000000
                       2.000000  2.000000  2.000000  0.000000  0.000000  0.000000
                       2.000000  2.000000  2.000000  2.000000  2.000000  2.000000
                       2.000000  2.000000  2.000000  2.000000  2.000000  2.000000
                       2.000000  2.000000  2.000000  0.000000  0.000000  0.000000
                       2.000000  2.000000  2.000000  2.000000  2.000000  2.000000
                       2.000000  2.000000  2.000000  2.000000  2.000000  2.000000
                       2.000000  2.000000  2.000000  0.000000  0.000000  0.000000
                       2.000000  2.000000  2.000000  2.000000  2.000000  2.000000
                       2.000000  2.000000  2.000000  2.000000  2.000000  2.000000
                       2.000000  2.000000  2.000000  0.000000  0.000000  0.000000
                       2.000000  2.000000  2.000000  2.000000  2.000000  2.000000
                       2.000000  2.000000  2.000000  2.000000  2.000000  2.000000
                       2.000000  2.000000  2.000000  0.000000  0.000000  0.000000
                       2.000000  2.000000  2.000000  2.000000  2.000000  2.000000
                       2.000000  2.000000  2.000000  2.000000  2.000000  2.000000
                       2.000000  2.000000  2.000000  0.000000  0.000000  0.000000
                       2.000000  2.000000  2.000000  2.000000  2.000000  2.000000
                       2.000000  2.000000  2.000000  2.000000  2.000000  2.000000
                       2.000000  2.000000  2.000000  0.000000  0.000000  0.000000
                       2.000000  2.000000  2.000000  2.000000  2.000000  2.000000
                       2.000000  2.000000  2.000000  2.000000  2.000000  2.000000
                       2.000000  2.000000  2.000000  0.000000  0.000000  0.000000
                       2.000000  2.000000  2.000000  2.000000  2.000000  2.000000
                       2.000000  2.000000  2.000000  2.000000  2.000000  2.000000
                       2.000000  2.000000  2.000000  0.000000  0.000000  0.000000
                       2.000000  2.000000  2.000000  2.000000  2.000000  2.000000
                       2.000000  2.000000  2.000000  2.000000  2.000000  2.000000
                       2.000000  2.000000  2.000000  0.000000  0.000000  0.000000
                       2.000000  2.000000  2.000000  2.000000  2.000000  2.000000
                       2.000000  2.000000  2.000000  2.000000  2.000000  2.000000
                       2.000000  2.000000  2.000000  0.000000  0.000000  0.000000
                       2.000000  2.000000  2.000000  2.000000  2.000000  2.000000
                       2.000000  2.000000  2.000000  2.000000  2.000000  2.000000
                       2.000000  2.000000  2.000000  0.000000  0.000000  0.000000
                       2.000000  2.000000  2.000000  2.000000  2.000000  2.000000
                       2.000000  2.000000  2.000000  2.000000  2.000000  2.000000
                       2.000000  2.000000  2.000000  0.000000  0.000000  0.000000
                       2.000000  2.000000  2.000000  2.000000  2.000000  2.000000
                       2.000000  2.000000  2.000000  2.000000  2.000000  2.000000
                       2.000000  2.000000  2.000000  0.000000  0.000000  0.000000
                       2.000000  2.000000  2.000000  2.000000  2.000000  2.000000
                       2.000000  2.000000  2.000000  2.000000  2.000000  2.000000
                       2.000000  2.000000  2.000000  0.000000  0.000000  0.000000
                       2.000000  2.000000  2.000000  2.000000  2.000000  2.000000
                       2.000000  2.000000  2.000000  2.000000  2.000000  2.000000
                       2.000000  2.000000  2.000000  0.000000  0.000000  0.000000
                       2.000000  2.000000  2.000000  2.000000  2.000000  2.000000
                       2.000000  2.000000  2.000000  2.000000  2.000000  2.000000
                       2.000000  2.000000  2.000000  0.000000  0.000000  0.000000
                       2.000000  2.000000  2.000000  2.000000  2.000000  2.000000
                       2.000000  2.000000  2.000000  2.000000  2.000000  2.000000
                       2.000000  2.000000  2.000000  0.000000  0.000000  0.000000
                       2.000000  2.000000  2.000000  2.000000  2.000000  2.000000
                       2.000000  2.000000  2.000000  2.000000  2.000000  2.000000
                       2.000000  2.000000  2.000000  0.000000  0.000000  0.000000
                       2.000000  2.000000  2.000000  2.000000  2.000000  2.000000
                       2.000000  2.000000  2.000000  2.000000  2.000000  2.000000
                       2.000000  2.000000  2.000000  0.000000  0.000000  0.000000
                       2.000000  2.000000  2.000000  2.000000  2.000000  2.000000
                       2.000000  2.000000  2.000000  2.000000  2.000000  2.000000
                       2.000000  2.000000  2.000000  0.000000  0.000000  0.000000
                       2.000000  2.000000  2.000000  2.000000  2.000000  2.000000
                       2.000000  2.000000  2.000000  2.000000  2.000000  2.000000
                       2.000000  2.000000  2.000000  0.000000  0.000000  0.000000
                       2.000000  2.000000  2.000000  2.000000  2.000000  2.000000
                       2.000000  2.000000  2.000000  2.000000  2.000000  2.000000
                       2.000000  2.000000  2.000000  0.000000  0.000000  0.000000
                       2.000000  2.000000  2.000000  2.000000  2.000000  2.000000
                       2.000000  2.000000  2.000000  2.000000  2.000000  2.000000
                       2.000000  2.000000  2.000000  0.000000  0.000000  0.000000
                       2.000000  2.000000  2.000000  2.000000  2.000000  2.000000
                       2.000000  2.000000  2.000000  2.000000  2.000000  2.000000
                       2.000000  2.000000  2.000000  0.000000  0.000000  0.000000
                       2.000000  2.000000  2.000000  2.000000  2.000000  2.000000
                       2.000000  2.000000  2.000000  2.000000  2.000000  2.000000
                       2.000000  2.000000  2.000000  0.000000  0.000000  0.000000
              occ3     2.000000  2.000000  2.000000  2.000000  2.000000  2.000000
                       2.000000  2.000000  2.000000  2.000000  2.000000  2.000000
                       2.000000  2.000000  2.000000  0.000000  0.000000  0.000000
                       2.000000  2.000000  2.000000  2.000000  2.000000  2.000000
                       2.000000  2.000000  2.000000  2.000000  2.000000  2.000000
                       2.000000  2.000000  2.000000  0.000000  0.000000  0.000000
                       2.000000  2.000000  2.000000  2.000000  2.000000  2.000000
                       2.000000  2.000000  2.000000  2.000000  2.000000  2.000000
                       2.000000  2.000000  2.000000  0.000000  0.000000  0.000000
                       2.000000  2.000000  2.000000  2.000000  2.000000  2.000000
                       2.000000  2.000000  2.000000  2.000000  2.000000  2.000000
                       2.000000  2.000000  2.000000  0.000000  0.000000  0.000000
                       2.000000  2.000000  2.000000  2.000000  2.000000  2.000000
                       2.000000  2.000000  2.000000  2.000000  2.000000  2.000000
                       2.000000  2.000000  2.000000  0.000000  0.000000  0.000000
                       2.000000  2.000000  2.000000  2.000000  2.000000  2.000000
                       2.000000  2.000000  2.000000  2.000000  2.000000  2.000000
                       2.000000  2.000000  2.000000  0.000000  0.000000  0.000000
                       2.000000  2.000000  2.000000  2.000000  2.000000  2.000000
                       2.000000  2.000000  2.000000  2.000000  2.000000  2.000000
                       2.000000  2.000000  2.000000  0.000000  0.000000  0.000000
                       2.000000  2.000000  2.000000  2.000000  2.000000  2.000000
                       2.000000  2.000000  2.000000  2.000000  2.000000  2.000000
                       2.000000  2.000000  2.000000  0.000000  0.000000  0.000000
                       2.000000  2.000000  2.000000  2.000000  2.000000  2.000000
                       2.000000  2.000000  2.000000  2.000000  2.000000  2.000000
                       2.000000  2.000000  2.000000  0.000000  0.000000  0.000000
                       2.000000  2.000000  2.000000  2.000000  2.000000  2.000000
                       2.000000  2.000000  2.000000  2.000000  2.000000  2.000000
                       2.000000  2.000000  2.000000  0.000000  0.000000  0.000000
                       2.000000  2.000000  2.000000  2.000000  2.000000  2.000000
                       2.000000  2.000000  2.000000  2.000000  2.000000  2.000000
                       2.000000  2.000000  2.000000  0.000000  0.000000  0.000000
                       2.000000  2.000000  2.000000  2.000000  2.000000  2.000000
                       2.000000  2.000000  2.000000  2.000000  2.000000  2.000000
                       2.000000  2.000000  2.000000  0.000000  0.000000  0.000000
                       2.000000  2.000000  2.000000  2.000000  2.000000  2.000000
                       2.000000  2.000000  2.000000  2.000000  2.000000  2.000000
                       2.000000  2.000000  2.000000  0.000000  0.000000  0.000000
                       2.000000  2.000000  2.000000  2.000000  2.000000  2.000000
                       2.000000  2.000000  2.000000  2.000000  2.000000  2.000000
                       2.000000  2.000000  2.000000  0.000000  0.000000  0.000000
                       2.000000  2.000000  2.000000  2.000000  2.000000  2.000000
                       2.000000  2.000000  2.000000  2.000000  2.000000  2.000000
                       2.000000  2.000000  2.000000  0.000000  0.000000  0.000000
                       2.000000  2.000000  2.000000  2.000000  2.000000  2.000000
                       2.000000  2.000000  2.000000  2.000000  2.000000  2.000000
                       2.000000  2.000000  2.000000  0.000000  0.000000  0.000000
                       2.000000  2.000000  2.000000  2.000000  2.000000  2.000000
                       2.000000  2.000000  2.000000  2.000000  2.000000  2.000000
                       2.000000  2.000000  2.000000  0.000000  0.000000  0.000000
                       2.000000  2.000000  2.000000  2.000000  2.000000  2.000000
                       2.000000  2.000000  2.000000  2.000000  2.000000  2.000000
                       2.000000  2.000000  2.000000  0.000000  0.000000  0.000000
                       2.000000  2.000000  2.000000  2.000000  2.000000  2.000000
                       2.000000  2.000000  2.000000  2.000000  2.000000  2.000000
                       2.000000  2.000000  2.000000  0.000000  0.000000  0.000000
                       2.000000  2.000000  2.000000  2.000000  2.000000  2.000000
                       2.000000  2.000000  2.000000  2.000000  2.000000  2.000000
                       2.000000  2.000000  2.000000  0.000000  0.000000  0.000000
                       2.000000  2.000000  2.000000  2.000000  2.000000  2.000000
                       2.000000  2.000000  2.000000  2.000000  2.000000  2.000000
                       2.000000  2.000000  2.000000  0.000000  0.000000  0.000000
                       2.000000  2.000000  2.000000  2.000000  2.000000  2.000000
                       2.000000  2.000000  2.000000  2.000000  2.000000  2.000000
                       2.000000  2.000000  2.000000  0.000000  0.000000  0.000000
                       2.000000  2.000000  2.000000  2.000000  2.000000  2.000000
                       2.000000  2.000000  2.000000  2.000000  2.000000  2.000000
                       2.000000  2.000000  2.000000  0.000000  0.000000  0.000000
                       2.000000  2.000000  2.000000  2.000000  2.000000  2.000000
                       2.000000  2.000000  2.000000  2.000000  2.000000  2.000000
                       2.000000  2.000000  2.000000  0.000000  0.000000  0.000000
                       2.000000  2.000000  2.000000  2.000000  2.000000  2.000000
                       2.000000  2.000000  2.000000  2.000000  2.000000  2.000000
                       2.000000  2.000000  2.000000  0.000000  0.000000  0.000000
                       2.000000  2.000000  2.000000  2.000000  2.000000  2.000000
                       2.000000  2.000000  2.000000  2.000000  2.000000  2.000000
                       2.000000  2.000000  2.000000  0.000000  0.000000  0.000000
                       2.000000  2.000000  2.000000  2.000000  2.000000  2.000000
                       2.000000  2.000000  2.000000  2.000000  2.000000  2.000000
                       2.000000  2.000000  2.000000  0.000000  0.000000  0.000000
                       2.000000  2.000000  2.000000  2.000000  2.000000  2.000000
                       2.000000  2.000000  2.000000  2.000000  2.000000  2.000000
                       2.000000  2.000000  2.000000  0.000000  0.000000  0.000000
                       2.000000  2.000000  2.000000  2.000000  2.000000  2.000000
                       2.000000  2.000000  2.000000  2.000000  2.000000  2.000000
                       2.000000  2.000000  2.000000  0.000000  0.000000  0.000000
                       2.000000  2.000000  2.000000  2.000000  2.000000  2.000000
                       2.000000  2.000000  2.000000  2.000000  2.000000  2.000000
                       2.000000  2.000000  2.000000  0.000000  0.000000  0.000000
                       2.000000  2.000000  2.000000  2.000000  2.000000  2.000000
                       2.000000  2.000000  2.000000  2.000000  2.000000  2.000000
                       2.000000  2.000000  2.000000  0.000000  0.000000  0.000000
                       2.000000  2.000000  2.000000  2.000000  2.000000  2.000000
                       2.000000  2.000000  2.000000  2.000000  2.000000  2.000000
                       2.000000  2.000000  2.000000  0.000000  0.000000  0.000000
                       2.000000  2.000000  2.000000  2.000000  2.000000  2.000000
                       2.000000  2.000000  2.000000  2.000000  2.000000  2.000000
                       2.000000  2.000000  2.000000  0.000000  0.000000  0.000000
                       2.000000  2.000000  2.000000  2.000000  2.000000  2.000000
                       2.000000  2.000000  2.000000  2.000000  2.000000  2.000000
                       2.000000  2.000000  2.000000  0.000000  0.000000  0.000000
                       2.000000  2.000000  2.000000  2.000000  2.000000  2.000000
                       2.000000  2.000000  2.000000  2.000000  2.000000  2.000000
                       2.000000  2.000000  2.000000  0.000000  0.000000  0.000000
                       2.000000  2.000000  2.000000  2.000000  2.000000  2.000000
                       2.000000  2.000000  2.000000  2.000000  2.000000  2.000000
                       2.000000  2.000000  2.000000  0.000000  0.000000  0.000000
           occopt           7
        optdriver1          0
        optdriver2          1
        optdriver3          1
        optforces           1
          rfatpol1          1       1
          rfatpol2          1       1
          rfatpol3          1       5
            rfdir1          0       0       0
            rfdir2          1       1       1
            rfdir3          1       1       1
           rfelfd1          0
           rfelfd2          2
           rfelfd3          3
           rfphon1          0
           rfphon2          0
           rfphon3          1
            rprim      7.9008670295E+00  0.0000000000E+00  0.0000000000E+00
                       0.0000000000E+00  7.9008670295E+00  0.0000000000E+00
                       0.0000000000E+00  0.0000000000E+00  7.9008670295E+00
          spgroup         221
           symrel      1  0  0   0  1  0   0  0  1      -1  0  0   0 -1  0   0  0 -1
                      -1  0  0   0  1  0   0  0 -1       1  0  0   0 -1  0   0  0  1
                      -1  0  0   0 -1  0   0  0  1       1  0  0   0  1  0   0  0 -1
                       1  0  0   0 -1  0   0  0 -1      -1  0  0   0  1  0   0  0  1
                       0  1  0   1  0  0   0  0  1       0 -1  0  -1  0  0   0  0 -1
                       0 -1  0   1  0  0   0  0 -1       0  1  0  -1  0  0   0  0  1
                       0 -1  0  -1  0  0   0  0  1       0  1  0   1  0  0   0  0 -1
                       0  1  0  -1  0  0   0  0 -1       0 -1  0   1  0  0   0  0  1
                       0  0  1   1  0  0   0  1  0       0  0 -1  -1  0  0   0 -1  0
                       0  0 -1   1  0  0   0 -1  0       0  0  1  -1  0  0   0  1  0
                       0  0 -1  -1  0  0   0  1  0       0  0  1   1  0  0   0 -1  0
                       0  0  1  -1  0  0   0 -1  0       0  0 -1   1  0  0   0  1  0
                       1  0  0   0  0  1   0  1  0      -1  0  0   0  0 -1   0 -1  0
                      -1  0  0   0  0  1   0 -1  0       1  0  0   0  0 -1   0  1  0
                      -1  0  0   0  0 -1   0  1  0       1  0  0   0  0  1   0 -1  0
                       1  0  0   0  0 -1   0 -1  0      -1  0  0   0  0  1   0  1  0
                       0  1  0   0  0  1   1  0  0       0 -1  0   0  0 -1  -1  0  0
                       0 -1  0   0  0  1  -1  0  0       0  1  0   0  0 -1   1  0  0
                       0 -1  0   0  0 -1   1  0  0       0  1  0   0  0  1  -1  0  0
                       0  1  0   0  0 -1  -1  0  0       0 -1  0   0  0  1   1  0  0
                       0  0  1   0  1  0   1  0  0       0  0 -1   0 -1  0  -1  0  0
                       0  0 -1   0  1  0  -1  0  0       0  0  1   0 -1  0   1  0  0
                       0  0 -1   0 -1  0   1  0  0       0  0  1   0  1  0  -1  0  0
                       0  0  1   0 -1  0  -1  0  0       0  0 -1   0  1  0   1  0  0
           tolvrs1     1.00000000E-14
           tolvrs2     0.00000000E+00
           tolvrs3     1.00000000E-14
           tolwfr1     0.00000000E+00
           tolwfr2     1.00000000E-18
           tolwfr3     0.00000000E+00
           tsmear      2.00000000E-02 Hartree
            typat      1  1  1  2  3
              wtk1       0.01563    0.09375    0.04688    0.18750    0.18750    0.04688
                         0.12500    0.18750    0.09375    0.01563
              wtk2       0.01563    0.03125    0.01563    0.03125    0.03125    0.03125
                         0.03125    0.01563    0.03125    0.01563    0.03125    0.03125
                         0.03125    0.03125    0.03125    0.03125    0.03125    0.03125
                         0.03125    0.03125    0.03125    0.03125    0.03125    0.03125
                         0.03125    0.03125    0.01563    0.03125    0.01563    0.03125
                         0.03125    0.03125    0.03125    0.01563    0.03125    0.01563
              wtk3       0.01563    0.03125    0.01563    0.03125    0.03125    0.03125
                         0.03125    0.01563    0.03125    0.01563    0.03125    0.03125
                         0.03125    0.03125    0.03125    0.03125    0.03125    0.03125
                         0.03125    0.03125    0.03125    0.03125    0.03125    0.03125
                         0.03125    0.03125    0.01563    0.03125    0.01563    0.03125
                         0.03125    0.03125    0.03125    0.01563    0.03125    0.01563
           xangst      2.0904793801E+00  2.0904793801E+00  0.0000000000E+00
                       2.0904793801E+00  0.0000000000E+00  2.0904793801E+00
                       0.0000000000E+00  2.0904793801E+00  2.0904793801E+00
                       0.0000000000E+00  0.0000000000E+00  0.0000000000E+00
                       2.0904793801E+00  2.0904793801E+00  2.0904793801E+00
            xcart      3.9504335148E+00  3.9504335148E+00  0.0000000000E+00
                       3.9504335148E+00  0.0000000000E+00  3.9504335148E+00
                       0.0000000000E+00  3.9504335148E+00  3.9504335148E+00
                       0.0000000000E+00  0.0000000000E+00  0.0000000000E+00
                       3.9504335148E+00  3.9504335148E+00  3.9504335148E+00
             xred      5.0000000000E-01  5.0000000000E-01  0.0000000000E+00
                       5.0000000000E-01  0.0000000000E+00  5.0000000000E-01
                       0.0000000000E+00  5.0000000000E-01  5.0000000000E-01
                       0.0000000000E+00  0.0000000000E+00  0.0000000000E+00
                       5.0000000000E-01  5.0000000000E-01  5.0000000000E-01
            znucl        8.00000   56.00000   22.00000
 
================================================================================
 
 chkinp: Checking input parameters for consistency, jdtset=   1.
 
 chkinp: Checking input parameters for consistency, jdtset=   2.
 
 chkinp: Checking input parameters for consistency, jdtset=   3.
 
================================================================================
== DATASET  1 ==================================================================
-   nproc =   32   -> not optimal: autoparal keyword recommended in input file
 
 Exchange-correlation functional for the present dataset will be:
  LDA: new Teter (4/93) with spin-polarized option - ixc=1
 Citation for XC functional:
  S. Goedecker, M. Teter, J. Huetter, PRB 54, 1703 (1996)
 
 Real(R)+Recip(G) space primitive vectors, cartesian coordinates (Bohr,Bohr^-1):
 R(1)=  7.9008670  0.0000000  0.0000000  G(1)=  0.1265684  0.0000000  0.0000000
 R(2)=  0.0000000  7.9008670  0.0000000  G(2)=  0.0000000  0.1265684  0.0000000
 R(3)=  0.0000000  0.0000000  7.9008670  G(3)=  0.0000000  0.0000000  0.1265684
 Unit cell volume ucvol=  4.9320135E+02 bohr^3
 Angles (23,13,12)=  9.00000000E+01  9.00000000E+01  9.00000000E+01 degrees
 
 getcut: wavevector=  0.0000  0.0000  0.0000  ngfft=  48  48  48
         ecut(hartree)=     40.000   => boxcut(ratio)=   2.13389
 
--- Pseudopotential description ------------------------------------------------
- pspini: atom type   1  psp file is /home/software/PseudoPotentials/AbInit/8o.pspnc
- pspatm: opening atomic psp file    /home/software/PseudoPotentials/AbInit/8o.pspnc
-  Troullier-Martins psp for element  O         Thu Oct 27 17:29:57 EDT 1994
-  8.00000   6.00000    940714                znucl, zion, pspdat
    1    1    1    1      2001   0.00000      pspcod,pspxc,lmax,lloc,mmax,r2well
    0   5.480  16.893    1   1.4482335        l,e99.0,e99.9,nproj,rcpsp
   0.00000000   0.00000000   0.00000000   0.00000000     rms, ekb1, ekb2, epsatm
    1  20.911  28.075    0   1.4482335        l,e99.0,e99.9,nproj,rcpsp
   0.00000000   0.00000000   0.00000000   0.00000000     rms, ekb1, ekb2, epsatm
    0.56990156784787    3.95561236318184    0.63894027514378   rchrg,fchrg,qchrg
 pspatm: epsatm=    1.57752239
         --- l  ekb(1:nproj) -->
             0    5.670783
 pspatm: atomic psp has been read  and splines computed
 
- pspini: atom type   2  psp file is /home/software/PseudoPotentials/AbInit/56ba.pspnc
- pspatm: opening atomic psp file    /home/software/PseudoPotentials/AbInit/56ba.pspnc
-  Troullier-Martins psp for element  Ba        Thu Oct 27 17:45:27 EDT 1994
- 56.00000   8.00000    940714                znucl, zion, pspdat
    1    1    2    0      2001   0.00000      pspcod,pspxc,lmax,lloc,mmax,r2well
    0   3.136   6.531    0   3.3606525        l,e99.0,e99.9,nproj,rcpsp
   0.00000000   0.00000000   0.00000000   0.00000000     rms, ekb1, ekb2, epsatm
    1   3.684   8.871    1   2.4896211        l,e99.0,e99.9,nproj,rcpsp
   0.00000000   0.00000000   0.00000000   0.00000000     rms, ekb1, ekb2, epsatm
    2   4.356   5.823    1   2.7860712        l,e99.0,e99.9,nproj,rcpsp
   0.00000000   0.00000000   0.00000000   0.00000000     rms, ekb1, ekb2, epsatm
    2.29351246205421    0.45434617287240    4.78340519141650   rchrg,fchrg,qchrg
 pspatm: epsatm=  174.17887550
         --- l  ekb(1:nproj) -->
             1   -2.337834
             2   -1.872976
 pspatm: atomic psp has been read  and splines computed
 
- pspini: atom type   3  psp file is /home/software/PseudoPotentials/AbInit/22ti.pspnc
- pspatm: opening atomic psp file    /home/software/PseudoPotentials/AbInit/22ti.pspnc
-  Troullier-Martins psp for element  Ti        Thu Oct 27 17:33:40 EDT 1994
- 22.00000   4.00000    940714                znucl, zion, pspdat
    1    1    2    0      2001   0.00000      pspcod,pspxc,lmax,lloc,mmax,r2well
    0   5.166   8.509    0   2.4203472        l,e99.0,e99.9,nproj,rcpsp
   0.00000000   0.00000000   0.00000000   0.00000000     rms, ekb1, ekb2, epsatm
    1   2.285   3.944    1   2.9934301        l,e99.0,e99.9,nproj,rcpsp
   0.00000000   0.00000000   0.00000000   0.00000000     rms, ekb1, ekb2, epsatm
    2  20.947  27.069    1   1.9326638        l,e99.0,e99.9,nproj,rcpsp
   0.00000000   0.00000000   0.00000000   0.00000000     rms, ekb1, ekb2, epsatm
    2.82741504495369    0.09256629068341    1.82586447305099   rchrg,fchrg,qchrg
 pspatm: epsatm=   66.67453488
         --- l  ekb(1:nproj) -->
             1    0.915537
             2   -8.015692
 pspatm: atomic psp has been read  and splines computed
 
   7.36757933E+03                                ecore*ucvol(ha*bohr**3)
--------------------------------------------------------------------------------
 
P newkpt: treating     18 bands with npw=    3016 for ikpt=   1 by node    0
P newkpt: treating     18 bands with npw=    5930 for ikpt=   2 by node    1
P newkpt: treating     18 bands with npw=    2971 for ikpt=   3 by node    2
P newkpt: treating     18 bands with npw=    5942 for ikpt=   4 by node    3
P newkpt: treating     18 bands with npw=    5984 for ikpt=   5 by node    4
P newkpt: treating     18 bands with npw=    2956 for ikpt=   6 by node    5
P newkpt: treating     18 bands with npw=    5950 for ikpt=   7 by node    6
P newkpt: treating     18 bands with npw=    5964 for ikpt=   8 by node    7
P newkpt: treating     18 bands with npw=    5952 for ikpt=   9 by node    8
P newkpt: treating     18 bands with npw=    2952 for ikpt=  10 by node    9
 
_setup2: Arith. and geom. avg. npw (full set) are    5954.203    5954.162
 
================================================================================
 
     iter   Etot(hartree)      deltaE(h)  residm     vres2    diffor    maxfor
 ETOT  1  -71.174616965682    -7.117E+01 1.723E-01 2.209E+03 0.000E+00 0.000E+00
 ETOT  2  -71.416804808894    -2.422E-01 1.657E-02 1.630E+03 0.000E+00 0.000E+00
 ETOT  3  -71.692610220375    -2.758E-01 6.975E-02 2.667E+02 0.000E+00 0.000E+00
 ETOT  4  -71.721939130612    -2.933E-02 2.775E-02 3.518E+02 0.000E+00 0.000E+00
 ETOT  5  -71.726013564087    -4.074E-03 1.420E-02 8.650E+01 0.000E+00 0.000E+00
 ETOT  6  -71.754726939070    -2.871E-02 6.035E-03 1.843E+01 0.000E+00 0.000E+00
 ETOT  7  -71.754420614116     3.063E-04 4.355E-03 7.142E+00 0.000E+00 0.000E+00
 ETOT  8  -71.755943004884    -1.522E-03 3.025E-03 1.829E+00 0.000E+00 0.000E+00
 ETOT  9  -71.756114129968    -1.711E-04 3.456E-03 1.549E-01 0.000E+00 0.000E+00
 ETOT 10  -71.756127308898    -1.318E-05 1.880E-03 1.138E-02 0.000E+00 0.000E+00
 ETOT 11  -71.756129313439    -2.005E-06 1.879E-03 1.707E-02 0.000E+00 0.000E+00
 ETOT 12  -71.756129191732     1.217E-07 8.970E-04 1.186E-02 0.000E+00 0.000E+00
 ETOT 13  -71.756133108455    -3.917E-06 8.337E-04 2.806E-03 0.000E+00 0.000E+00
 ETOT 14  -71.756134030442    -9.220E-07 3.766E-04 1.543E-03 0.000E+00 0.000E+00
 ETOT 15  -71.756134672154    -6.417E-07 3.430E-04 3.914E-04 0.000E+00 0.000E+00
 ETOT 16  -71.756135055872    -3.837E-07 1.515E-04 1.882E-04 0.000E+00 0.000E+00
 ETOT 17  -71.756135325860    -2.700E-07 1.368E-04 2.737E-04 0.000E+00 0.000E+00
 ETOT 18  -71.756135491399    -1.655E-07 6.010E-05 3.150E-04 0.000E+00 0.000E+00
 ETOT 19  -71.756135598458    -1.071E-07 6.119E-05 2.711E-04 0.000E+00 0.000E+00
 ETOT 20  -71.756135666254    -6.780E-08 3.077E-05 3.199E-04 0.000E+00 0.000E+00
 ETOT 21  -71.756135704790    -3.854E-08 3.691E-05 2.536E-04 0.000E+00 0.000E+00
 ETOT 22  -71.756135742815    -3.803E-08 1.856E-05 7.950E-05 0.000E+00 0.000E+00
 ETOT 23  -71.756135768933    -2.612E-08 2.209E-05 8.476E-05 0.000E+00 0.000E+00
 ETOT 24  -71.756135781858    -1.292E-08 1.110E-05 4.267E-05 0.000E+00 0.000E+00
 ETOT 25  -71.756135790594    -8.736E-09 1.317E-05 2.008E-06 0.000E+00 0.000E+00
 ETOT 26  -71.756135795005    -4.411E-09 6.625E-06 1.318E-06 0.000E+00 0.000E+00
 ETOT 27  -71.756135797837    -2.833E-09 7.841E-06 8.564E-07 0.000E+00 0.000E+00
 ETOT 28  -71.756135799624    -1.786E-09 4.691E-06 2.836E-07 0.000E+00 0.000E+00
 ETOT 29  -71.756135800730    -1.106E-09 4.653E-06 1.487E-07 0.000E+00 0.000E+00
 ETOT 30  -71.756135801418    -6.885E-10 3.523E-06 9.305E-08 0.000E+00 0.000E+00
 ETOT 31  -71.756135801847    -4.286E-10 3.012E-06 3.827E-08 0.000E+00 0.000E+00
 ETOT 32  -71.756135802115    -2.683E-10 2.647E-06 9.647E-09 0.000E+00 0.000E+00
 ETOT 33  -71.756135802286    -1.707E-10 2.264E-06 1.610E-08 0.000E+00 0.000E+00
 ETOT 34  -71.756135802393    -1.067E-10 1.990E-06 2.358E-09 0.000E+00 0.000E+00
 ETOT 35  -71.756135802460    -6.717E-11 1.703E-06 1.656E-09 0.000E+00 0.000E+00
 ETOT 36  -71.756135802502    -4.246E-11 1.497E-06 1.134E-09 0.000E+00 0.000E+00
 ETOT 37  -71.756135802529    -2.696E-11 1.437E-06 5.279E-11 0.000E+00 0.000E+00
 ETOT 38  -71.756135802545    -1.583E-11 1.126E-06 1.925E-11 0.000E+00 0.000E+00
 ETOT 39  -71.756135802557    -1.167E-11 1.367E-06 3.936E-11 0.000E+00 0.000E+00
 ETOT 40  -71.756135802562    -5.343E-12 8.466E-07 2.458E-11 0.000E+00 0.000E+00
 ETOT 41  -71.756135802566    -4.221E-12 1.301E-06 2.728E-11 0.000E+00 0.000E+00
 ETOT 42  -71.756135802570    -3.624E-12 7.127E-07 8.429E-12 0.000E+00 0.000E+00
 ETOT 43  -71.756135802571    -1.052E-12 1.237E-06 3.309E-12 0.000E+00 0.000E+00
 ETOT 44  -71.756135802573    -2.260E-12 6.800E-07 1.640E-12 0.000E+00 0.000E+00
 ETOT 45  -71.756135802573     6.111E-13 1.176E-06 1.993E-12 0.000E+00 0.000E+00
 ETOT 46  -71.756135802573    -6.963E-13 6.487E-07 7.084E-13 0.000E+00 0.000E+00
 ETOT 47  -71.756135802573     4.405E-13 1.118E-06 6.815E-13 0.000E+00 0.000E+00
 ETOT 48  -71.756135802573    -8.527E-14 6.187E-07 4.944E-13 0.000E+00 0.000E+00
 ETOT 49  -71.756135802574    -7.816E-13 1.062E-06 2.235E-13 0.000E+00 0.000E+00
 ETOT 50  -71.756135802574     2.842E-14 5.899E-07 1.889E-13 0.000E+00 0.000E+00
 ETOT 51  -71.756135802573     2.984E-13 1.010E-06 1.024E-13 0.000E+00 0.000E+00
 ETOT 52  -71.756135802574    -7.958E-13 5.623E-07 1.435E-13 0.000E+00 0.000E+00
 ETOT 53  -71.756135802573     8.100E-13 9.595E-07 1.700E-13 0.000E+00 0.000E+00
 ETOT 54  -71.756135802573    -1.705E-13 5.360E-07 1.786E-13 0.000E+00 0.000E+00
 ETOT 55  -71.756135802574    -6.395E-13 9.117E-07 1.821E-13 0.000E+00 0.000E+00
 ETOT 56  -71.756135802574    -1.137E-13 5.107E-07 1.348E-13 0.000E+00 0.000E+00
 ETOT 57  -71.756135802574     5.684E-14 4.866E-07 5.881E-14 0.000E+00 0.000E+00
 ETOT 58  -71.756135802575    -1.009E-12 4.635E-07 6.325E-14 0.000E+00 0.000E+00
 ETOT 59  -71.756135802574     1.435E-12 4.415E-07 3.556E-14 0.000E+00 0.000E+00
 ETOT 60  -71.756135802574    -1.990E-13 4.204E-07 2.779E-15 0.000E+00 0.000E+00
 
 At SCF step   60       vres2   =  2.78E-15 < tolvrs=  1.00E-14 =>converged.
 
 Cartesian components of stress tensor (hartree/bohr^3)
  sigma(1 1)= -1.80878216E-06  sigma(3 2)=  0.00000000E+00
  sigma(2 2)= -1.80878216E-06  sigma(3 1)=  0.00000000E+00
  sigma(3 3)= -1.80878216E-06  sigma(2 1)=  0.00000000E+00
 
================================================================================
 
 ----iterations are completed or convergence reached----
 
 Mean square residual over all n,k,spin=   2.4973E-09; max=  4.2039E-07
   0.0000  0.0000  0.0000    1  2.00990E-14 kpt; spin; max resid(k); each band:
  1.86E-23 7.01E-23 7.10E-23 4.24E-25 4.50E-25 3.86E-25 1.08E-25 1.08E-25
  1.09E-25 1.35E-26 1.35E-26 1.35E-26 1.61E-24 1.61E-24 1.61E-24 1.87E-16
  2.01E-14 1.17E-14
   0.2500  0.0000  0.0000    1  3.47006E-12 kpt; spin; max resid(k); each band:
  1.85E-23 5.91E-23 7.54E-23 2.35E-25 2.34E-25 1.17E-23 7.87E-22 9.04E-25
  9.04E-25 3.55E-24 3.54E-24 8.73E-22 6.03E-24 2.12E-24 2.12E-24 4.95E-16
  1.76E-13 3.47E-12
   0.5000  0.0000  0.0000    1  4.20386E-07 kpt; spin; max resid(k); each band:
  1.32E-23 2.61E-24 7.28E-23 1.03E-24 1.04E-24 3.33E-23 3.34E-22 7.12E-25
  7.08E-25 6.85E-24 5.59E-25 6.99E-23 7.27E-23 8.38E-25 8.32E-25 7.34E-18
  1.03E-19 4.20E-07
   0.2500  0.2500  0.0000    1  1.72414E-13 kpt; spin; max resid(k); each band:
  1.59E-23 4.01E-23 6.87E-23 4.59E-24 1.97E-25 9.62E-24 6.54E-22 6.64E-23
  1.23E-24 5.26E-22 2.07E-24 4.92E-22 7.35E-25 2.51E-22 5.04E-22 9.60E-16
  8.62E-15 1.72E-13
   0.5000  0.2500  0.0000    1  8.46765E-10 kpt; spin; max resid(k); each band:
  1.39E-23 3.39E-24 6.92E-23 6.16E-24 1.44E-23 8.06E-26 5.92E-22 4.85E-24
  2.58E-22 1.39E-24 1.05E-24 9.09E-25 2.10E-23 7.42E-22 4.03E-23 4.69E-15
  6.79E-11 8.47E-10
   0.5000  0.5000  0.0000    1  2.78976E-08 kpt; spin; max resid(k); each band:
  4.64E-23 9.68E-25 1.05E-24 1.37E-24 1.22E-24 4.53E-26 5.97E-22 1.11E-24
  5.48E-24 1.23E-24 1.78E-24 6.27E-26 1.81E-24 1.81E-24 1.96E-24 5.41E-16
  3.12E-10 2.79E-08
   0.2500  0.2500  0.2500    1  1.78254E-20 kpt; spin; max resid(k); each band:
  1.22E-23 4.07E-23 3.75E-23 3.14E-24 3.24E-24 1.50E-24 2.50E-24 2.60E-22
  2.57E-22 8.34E-24 1.17E-23 1.17E-23 7.18E-22 7.18E-22 1.08E-26 1.26E-21
  2.69E-21 1.78E-20
   0.5000  0.2500  0.2500    1  1.63208E-18 kpt; spin; max resid(k); each band:
  8.20E-24 3.36E-24 3.46E-23 6.10E-25 5.98E-24 1.75E-24 4.08E-22 2.00E-24
  1.29E-22 2.76E-22 1.90E-24 1.47E-22 8.86E-22 7.95E-24 3.05E-23 8.47E-21
  1.57E-18 1.63E-18
   0.5000  0.5000  0.2500    1  6.55238E-19 kpt; spin; max resid(k); each band:
  2.27E-23 7.10E-25 6.81E-25 1.63E-24 1.72E-24 1.15E-24 3.19E-22 4.05E-24
  3.67E-25 1.43E-22 1.28E-24 1.28E-24 1.45E-23 1.45E-23 7.56E-25 5.35E-20
  1.91E-19 6.55E-19
   0.5000  0.5000  0.5000    1  2.43603E-23 kpt; spin; max resid(k); each band:
  3.85E-25 3.82E-25 3.85E-25 4.58E-25 4.49E-25 3.93E-25 2.41E-25 2.07E-24
  2.07E-24 1.90E-25 1.89E-25 1.89E-25 1.97E-27 1.96E-27 1.99E-27 2.40E-23
  2.42E-23 2.44E-23
 reduced coordinates (array xred) for    5 atoms
       0.500000000000      0.500000000000      0.000000000000
       0.500000000000      0.000000000000      0.500000000000
       0.000000000000      0.500000000000      0.500000000000
       0.000000000000      0.000000000000      0.000000000000
       0.500000000000      0.500000000000      0.500000000000
 rms dE/dt=  0.0000E+00; max dE/dt=  0.0000E+00; dE/dt below (all hartree)
    1       0.000000000000      0.000000000000      0.000000000000
    2       0.000000000000      0.000000000000      0.000000000000
    3       0.000000000000      0.000000000000      0.000000000000
    4       0.000000000000      0.000000000000      0.000000000000
    5       0.000000000000      0.000000000000      0.000000000000
 
 cartesian coordinates (angstrom) at end:
    1      2.09047938006005     2.09047938006005     0.00000000000000
    2      2.09047938006005     0.00000000000000     2.09047938006005
    3      0.00000000000000     2.09047938006005     2.09047938006005
    4      0.00000000000000     0.00000000000000     0.00000000000000
    5      2.09047938006005     2.09047938006005     2.09047938006005
 
 cartesian forces (hartree/bohr) at end:
    1      0.00000000000000     0.00000000000000     0.00000000000000
    2      0.00000000000000     0.00000000000000     0.00000000000000
    3      0.00000000000000     0.00000000000000     0.00000000000000
    4      0.00000000000000     0.00000000000000     0.00000000000000
    5      0.00000000000000     0.00000000000000     0.00000000000000
 frms,max,avg= 0.0000000E+00 0.0000000E+00   0.000E+00  0.000E+00  0.000E+00 h/b
 
 cartesian forces (eV/Angstrom) at end:
    1      0.00000000000000     0.00000000000000     0.00000000000000
    2      0.00000000000000     0.00000000000000     0.00000000000000
    3      0.00000000000000     0.00000000000000     0.00000000000000
    4      0.00000000000000     0.00000000000000     0.00000000000000
    5      0.00000000000000     0.00000000000000     0.00000000000000
 frms,max,avg= 0.0000000E+00 0.0000000E+00   0.000E+00  0.000E+00  0.000E+00 e/A
 length scales=  1.000000000000  1.000000000000  1.000000000000 bohr
              =  0.529177208590  0.529177208590  0.529177208590 angstroms
 prteigrs : about to open file BaTiO3_o_DS1_EIG
 Fermi (or HOMO) energy (hartree) =  -0.22118   Average Vxc (hartree)=  -0.40357
 Eigenvalues (hartree) for nkpt=  10  k points:
 kpt#   1, nband= 18, wtk=  0.01563, kpt=  0.0000  0.0000  0.0000 (reduced coord)
  -0.85642  -0.81927  -0.81927  -0.60801  -0.60801  -0.60801  -0.34045  -0.34045
  -0.34045  -0.28075  -0.28075  -0.28075  -0.25537  -0.25537  -0.25537  -0.19505
  -0.19505  -0.19505
      occupation numbers for kpt#   1
   2.00000   2.00000   2.00000   2.00000   2.00000   2.00000   2.00000   2.00000
   2.00000   1.99997   1.99997   1.99997   1.98436   1.98436   1.98436   0.06459
   0.06459   0.06459
 kpt#   2, nband= 18, wtk=  0.09375, kpt=  0.2500  0.0000  0.0000 (reduced coord)
  -0.85333  -0.82197  -0.81861  -0.60574  -0.60574  -0.60342  -0.36297  -0.34461
  -0.34461  -0.29771  -0.29771  -0.29690  -0.29646  -0.26644  -0.26644  -0.19264
  -0.16695  -0.16695
      occupation numbers for kpt#   2
   2.00000   2.00000   2.00000   2.00000   2.00000   2.00000   2.00000   2.00000
   2.00000   2.00000   2.00000   2.00000   2.00000   1.99863   1.99863   0.04358
   0.00013   0.00013
 kpt#   3, nband= 18, wtk=  0.04688, kpt=  0.5000  0.0000  0.0000 (reduced coord)
  -0.85045  -0.82419  -0.81794  -0.60336  -0.60336  -0.59886  -0.38151  -0.35115
  -0.35115  -0.32630  -0.30953  -0.30709  -0.30709  -0.27519  -0.27519  -0.19015
  -0.14507  -0.14501
      occupation numbers for kpt#   3
   2.00000   2.00000   2.00000   2.00000   2.00000   2.00000   2.00000   2.00000
   2.00000   2.00000   2.00000   2.00000   2.00000   1.99987   1.99987   0.02821
   0.00000   0.00000
 kpt#   4, nband= 18, wtk=  0.18750, kpt=  0.2500  0.2500  0.0000 (reduced coord)
  -0.84880  -0.82316  -0.81968  -0.60872  -0.60343  -0.60154  -0.37620  -0.35340
  -0.34379  -0.34005  -0.31259  -0.30050  -0.28310  -0.28067  -0.26661  -0.16803
  -0.16459  -0.15759
      occupation numbers for kpt#   4
   2.00000   2.00000   2.00000   2.00000   2.00000   2.00000   2.00000   2.00000
   2.00000   2.00000   2.00000   2.00000   1.99999   1.99997   1.99868   0.00017
   0.00006   0.00001
 kpt#   5, nband= 18, wtk=  0.18750, kpt=  0.5000  0.2500  0.0000 (reduced coord)
  -0.84369  -0.82549  -0.81999  -0.60694  -0.60460  -0.60102  -0.38828  -0.36625
  -0.35925  -0.34572  -0.32097  -0.29694  -0.29687  -0.28625  -0.26701  -0.16549
  -0.14519  -0.14169
      occupation numbers for kpt#   5
   2.00000   2.00000   2.00000   2.00000   2.00000   2.00000   2.00000   2.00000
   2.00000   2.00000   2.00000   2.00000   2.00000   2.00000   1.99881   0.00008
   0.00000   0.00000
 kpt#   6, nband= 18, wtk=  0.04688, kpt=  0.5000  0.5000  0.0000 (reduced coord)
  -0.83208  -0.82682  -0.82682  -0.60990  -0.60990  -0.59856  -0.39896  -0.38718
  -0.37016  -0.33380  -0.33380  -0.32018  -0.28011  -0.28011  -0.25369  -0.14523
  -0.14523  -0.13294
      occupation numbers for kpt#   6
   2.00000   2.00000   2.00000   2.00000   2.00000   2.00000   2.00000   2.00000
   2.00000   2.00000   2.00000   2.00000   1.99997   1.99997   1.97847   0.00000
   0.00000   0.00000
 kpt#   7, nband= 18, wtk=  0.12500, kpt=  0.2500  0.2500  0.2500 (reduced coord)
  -0.84387  -0.82187  -0.82187  -0.61193  -0.61193  -0.59859  -0.38461  -0.35383
  -0.35383  -0.34003  -0.32556  -0.32556  -0.27367  -0.27367  -0.26588  -0.15510
  -0.15376  -0.15376
      occupation numbers for kpt#   7
   2.00000   2.00000   2.00000   2.00000   2.00000   2.00000   2.00000   2.00000
   2.00000   2.00000   2.00000   2.00000   1.99979   1.99979   1.99843   0.00000
   0.00000   0.00000
 kpt#   8, nband= 18, wtk=  0.18750, kpt=  0.5000  0.2500  0.2500 (reduced coord)
  -0.83769  -0.82520  -0.82054  -0.61521  -0.61154  -0.60489  -0.39245  -0.36096
  -0.35895  -0.35430  -0.33084  -0.32129  -0.27820  -0.27193  -0.26419  -0.15123
  -0.13918  -0.13849
      occupation numbers for kpt#   8
   2.00000   2.00000   2.00000   2.00000   2.00000   2.00000   2.00000   2.00000
   2.00000   2.00000   2.00000   2.00000   1.99994   1.99967   1.99764   0.00000
   0.00000   0.00000
 kpt#   9, nband= 18, wtk=  0.09375, kpt=  0.5000  0.5000  0.2500 (reduced coord)
  -0.82765  -0.82495  -0.82495  -0.61805  -0.61805  -0.61349  -0.40240  -0.36992
  -0.35820  -0.35214  -0.33158  -0.33158  -0.26695  -0.26695  -0.25164  -0.13602
  -0.13602  -0.12933
      occupation numbers for kpt#   9
   2.00000   2.00000   2.00000   2.00000   2.00000   2.00000   2.00000   2.00000
   2.00000   2.00000   2.00000   2.00000   1.99879   1.99879   1.96875   0.00000
   0.00000   0.00000
 kpt#  10, nband= 18, wtk=  0.01563, kpt=  0.5000  0.5000  0.5000 (reduced coord)
  -0.82299  -0.82299  -0.82299  -0.62586  -0.62586  -0.62586  -0.41194  -0.36969
  -0.36969  -0.33133  -0.33133  -0.33133  -0.24954  -0.24954  -0.24954  -0.12546
  -0.12546  -0.12546
      occupation numbers for kpt#  10
   2.00000   2.00000   2.00000   2.00000   2.00000   2.00000   2.00000   2.00000
   2.00000   2.00000   2.00000   2.00000   1.95506   1.95506   1.95506   0.00000
   0.00000   0.00000
 Total charge density [el/Bohr^3]
,     Maximum=    9.5328E-01  at reduced coord.    0.0000    0.5000    0.5625
,Next maximum=    9.5328E-01  at reduced coord.    0.5000    0.0000    0.5625
,     Minimum=    1.7849E-05  at reduced coord.    0.0000    0.0000    0.0000
,Next minimum=    2.6086E-04  at reduced coord.    0.5000    0.5000    0.5000
,  Integrated=    3.0000E+01
 
--------------------------------------------------------------------------------
 Components of total free energy (in Hartree) :
 
    Kinetic energy  =  4.37226025918729E+01
    Hartree energy  =  1.53460722056579E+01
    XC energy       = -2.01520719986062E+01
    Ewald energy    = -5.64584196076831E+01
    PspCore energy  =  1.49382788601216E+01
    Loc. psp. energy= -5.80838916530354E+01
    NL   psp  energy= -1.10680928989731E+01
    >>>>> Internal E= -7.17555225006453E+01
 
    -kT*entropy     = -6.13301928642546E-04
    >>>>>>>>> Etotal= -7.17561358025739E+01
 
 Other information on the energy :
    Total energy(eV)= -1.95258375563413E+03 ; Band energy (Ha)=  -1.4402569933E+01
--------------------------------------------------------------------------------
 
 Cartesian components of stress tensor (hartree/bohr^3)
  sigma(1 1)= -1.80878216E-06  sigma(3 2)=  0.00000000E+00
  sigma(2 2)= -1.80878216E-06  sigma(3 1)=  0.00000000E+00
  sigma(3 3)= -1.80878216E-06  sigma(2 1)=  0.00000000E+00
 
-Cartesian components of stress tensor (GPa)         [Pressure=  5.3216E-02 GPa]
- sigma(1 1)= -5.32161995E-02  sigma(3 2)=  0.00000000E+00
- sigma(2 2)= -5.32161995E-02  sigma(3 1)=  0.00000000E+00
- sigma(3 3)= -5.32161995E-02  sigma(2 1)=  0.00000000E+00
 
================================================================================
== DATASET  2 ==================================================================
-   nproc =   32
 
 mkfilename : getwfk/=0, take file _WFK from output of DATASET   1.
 
 Exchange-correlation functional for the present dataset will be:
  LDA: new Teter (4/93) with spin-polarized option - ixc=1
 Citation for XC functional:
  S. Goedecker, M. Teter, J. Huetter, PRB 54, 1703 (1996)
 
 Real(R)+Recip(G) space primitive vectors, cartesian coordinates (Bohr,Bohr^-1):
 R(1)=  7.9008670  0.0000000  0.0000000  G(1)=  0.1265684  0.0000000  0.0000000
 R(2)=  0.0000000  7.9008670  0.0000000  G(2)=  0.0000000  0.1265684  0.0000000
 R(3)=  0.0000000  0.0000000  7.9008670  G(3)=  0.0000000  0.0000000  0.1265684
 Unit cell volume ucvol=  4.9320135E+02 bohr^3
 Angles (23,13,12)=  9.00000000E+01  9.00000000E+01  9.00000000E+01 degrees
 setup1 : take into account q-point for computing boxcut.
 
 getcut: wavevector=  0.0000  0.0000  0.0000  ngfft=  48  48  48
         ecut(hartree)=     40.000   => boxcut(ratio)=   2.13389
--------------------------------------------------------------------------------
 
-inwffil : will read wavefunctions from disk file BaTiO3_o_DS1_WFK
- newkpt: read input wf with ikpt,npw=   1    3016, make ikpt,npw=   1    6031
- newkpt: read input wf with ikpt,npw=   2    5930, make ikpt,npw=   2    5930
 
 
 ==>  initialize data related to q vector <== 
 
 The list of irreducible perturbations for this q vector is:
    1)    idir= 1    ipert=   6
    2)    idir= 2    ipert=   6
    3)    idir= 3    ipert=   6
 
================================================================================
 
--------------------------------------------------------------------------------
 Perturbation wavevector (in red.coord.)   0.000000  0.000000  0.000000
 Perturbation : derivative vs k along direction   1
 The set of symmetries contains only one element for this perturbation.
 symkpt : not enough symmetry to change the number of k points.
 
--------------------------------------------------------------------------------
 
-inwffil : will read wavefunctions from disk file BaTiO3_o_DS1_WFK
- newkpt: read input wf with ikpt,npw=   1    3016, make ikpt,npw=   1    6031
- newkpt: read input wf with ikpt,npw=   2    5930, make ikpt,npw=   2    5930
 
--------------------------------------------------------------------------------
 
-inwffil : will read wavefunctions from disk file BaTiO3_o_DS1_WFK
- newkpt: read input wf with ikpt,npw=   1    3016, make ikpt,npw=   1    6031
- newkpt: read input wf with ikpt,npw=   2    5930, make ikpt,npw=   2    5930
 
 loper3 : total number of electrons, from k and k+q
  fully or partially occupied states are    3.000000E+01 and    3.000000E+01.
 Initialisation of the first-order wave-functions :
  ireadwf=   0
P newkpt: treating     18 bands with npw=    6031 for ikpt=   1 by node    0
P newkpt: treating     18 bands with npw=    5930 for ikpt=   2 by node    0
P newkpt: treating     18 bands with npw=    5942 for ikpt=   3 by node    1
P newkpt: treating     18 bands with npw=    5930 for ikpt=   4 by node    1
P newkpt: treating     18 bands with npw=    5942 for ikpt=   5 by node    2
P newkpt: treating     18 bands with npw=    5984 for ikpt=   6 by node    2
P newkpt: treating     18 bands with npw=    5942 for ikpt=   7 by node    3
P newkpt: treating     18 bands with npw=    5942 for ikpt=   8 by node    3
P newkpt: treating     18 bands with npw=    5984 for ikpt=   9 by node    4
P newkpt: treating     18 bands with npw=    5912 for ikpt=  10 by node    4
P newkpt: treating     18 bands with npw=    5930 for ikpt=  11 by node    5
P newkpt: treating     18 bands with npw=    5942 for ikpt=  12 by node    5
P newkpt: treating     18 bands with npw=    5984 for ikpt=  13 by node    6
P newkpt: treating     18 bands with npw=    5942 for ikpt=  14 by node    6
P newkpt: treating     18 bands with npw=    5942 for ikpt=  15 by node    7
P newkpt: treating     18 bands with npw=    5950 for ikpt=  16 by node    7
P newkpt: treating     18 bands with npw=    5964 for ikpt=  17 by node    8
P newkpt: treating     18 bands with npw=    5950 for ikpt=  18 by node    8
P newkpt: treating     18 bands with npw=    5984 for ikpt=  19 by node    9
P newkpt: treating     18 bands with npw=    5964 for ikpt=  20 by node    9
P newkpt: treating     18 bands with npw=    5952 for ikpt=  21 by node   10
P newkpt: treating     18 bands with npw=    5964 for ikpt=  22 by node   10
P newkpt: treating     18 bands with npw=    5942 for ikpt=  23 by node   11
P newkpt: treating     18 bands with npw=    5950 for ikpt=  24 by node   11
P newkpt: treating     18 bands with npw=    5964 for ikpt=  25 by node   12
P newkpt: treating     18 bands with npw=    5950 for ikpt=  26 by node   12
P newkpt: treating     18 bands with npw=    5942 for ikpt=  27 by node   13
P newkpt: treating     18 bands with npw=    5984 for ikpt=  28 by node   13
P newkpt: treating     18 bands with npw=    5912 for ikpt=  29 by node   14
P newkpt: treating     18 bands with npw=    5984 for ikpt=  30 by node   14
P newkpt: treating     18 bands with npw=    5964 for ikpt=  31 by node   15
P newkpt: treating     18 bands with npw=    5952 for ikpt=  32 by node   15
P newkpt: treating     18 bands with npw=    5964 for ikpt=  33 by node   16
P newkpt: treating     18 bands with npw=    5912 for ikpt=  34 by node   16
P newkpt: treating     18 bands with npw=    5952 for ikpt=  35 by node   17
P newkpt: treating     18 bands with npw=    5904 for ikpt=  36 by node   17
 
 
     iter   2DEtotal(Ha)        deltaE(Ha) residm    vres2
-ETOT  1  -25.504872972503     -2.550E+01 4.833E-01 0.000E+00
 ETOT  2  -25.926181721290     -4.213E-01 1.618E-01 0.000E+00
 ETOT  3  -25.988400946792     -6.222E-02 1.487E-02 0.000E+00
 ETOT  4  -26.001751301102     -1.335E-02 6.218E-03 0.000E+00
 ETOT  5  -26.005143131811     -3.392E-03 2.356E-03 0.000E+00
 ETOT  6  -26.006063103046     -9.200E-04 1.035E-03 0.000E+00
 ETOT  7  -26.006326330326     -2.632E-04 9.672E-04 0.000E+00
 ETOT  8  -26.006404343898     -7.801E-05 4.344E-04 0.000E+00
 ETOT  9  -26.006428177795     -2.383E-05 4.055E-04 0.000E+00
 ETOT 10  -26.006435640953     -7.463E-06 1.856E-04 0.000E+00
 ETOT 11  -26.006438038549     -2.398E-06 1.752E-04 0.000E+00
 ETOT 12  -26.006438822731     -7.842E-07 8.137E-05 0.000E+00
 ETOT 13  -26.006439083941     -2.612E-07 7.745E-05 0.000E+00
 ETOT 14  -26.006439172498     -8.856E-08 3.624E-05 0.000E+00
 ETOT 15  -26.006439203261     -3.076E-08 3.461E-05 0.000E+00
 ETOT 16  -26.006439214306     -1.104E-08 1.625E-05 0.000E+00
 ETOT 17  -26.006439218485     -4.179E-09 1.555E-05 0.000E+00
 ETOT 18  -26.006439220188     -1.704E-09 7.310E-06 0.000E+00
 ETOT 19  -26.006439220956     -7.675E-10 7.010E-06 0.000E+00
 ETOT 20  -26.006439221341     -3.855E-10 3.292E-06 0.000E+00
 ETOT 21  -26.006439221556     -2.151E-10 3.164E-06 0.000E+00
 ETOT 22  -26.006439221685     -1.290E-10 1.484E-06 0.000E+00
 ETOT 23  -26.006439221766     -8.108E-11 1.429E-06 0.000E+00
 ETOT 24  -26.006439221819     -5.247E-11 6.691E-07 0.000E+00
 ETOT 25  -26.006439221853     -3.450E-11 6.461E-07 0.000E+00
 ETOT 26  -26.006439221876     -2.291E-11 3.018E-07 0.000E+00
 ETOT 27  -26.006439221891     -1.527E-11 2.921E-07 0.000E+00
 ETOT 28  -26.006439221902     -1.026E-11 1.362E-07 0.000E+00
 ETOT 29  -26.006439221908     -6.857E-12 1.321E-07 0.000E+00
 ETOT 30  -26.006439221913     -4.587E-12 6.147E-08 0.000E+00
 ETOT 31  -26.006439221916     -3.080E-12 5.978E-08 0.000E+00
 ETOT 32  -26.006439221918     -2.085E-12 2.775E-08 0.000E+00
 ETOT 33  -26.006439221920     -1.378E-12 2.705E-08 0.000E+00
 ETOT 34  -26.006439221920     -9.415E-13 1.253E-08 0.000E+00
 ETOT 35  -26.006439221921     -6.146E-13 1.224E-08 0.000E+00
 ETOT 36  -26.006439221922     -4.405E-13 5.659E-09 0.000E+00
 ETOT 37  -26.006439221922     -2.807E-13 5.541E-09 0.000E+00
 ETOT 38  -26.006439221922     -1.954E-13 2.557E-09 0.000E+00
 ETOT 39  -26.006439221922     -1.350E-13 2.508E-09 0.000E+00
 ETOT 40  -26.006439221922     -8.171E-14 1.155E-09 0.000E+00
 ETOT 41  -26.006439221922     -4.619E-14 1.135E-09 0.000E+00
 ETOT 42  -26.006439221922     -4.974E-14 5.221E-10 0.000E+00
 ETOT 43  -26.006439221922     -1.421E-14 5.141E-10 0.000E+00
 ETOT 44  -26.006439221922     -3.553E-14 2.360E-10 0.000E+00
 ETOT 45  -26.006439221922     -1.066E-14 2.328E-10 0.000E+00
 ETOT 46  -26.006439221922      3.553E-15 1.067E-10 0.000E+00
 ETOT 47  -26.006439221922     -1.066E-14 1.054E-10 0.000E+00
 ETOT 48  -26.006439221922      3.553E-15 4.824E-11 0.000E+00
 ETOT 49  -26.006439221922     -1.421E-14 4.774E-11 0.000E+00
 ETOT 50  -26.006439221922     -7.105E-15 2.182E-11 0.000E+00
 ETOT 51  -26.006439221922      1.421E-14 2.162E-11 0.000E+00
 ETOT 52  -26.006439221922     -7.105E-15 9.868E-12 0.000E+00
 ETOT 53  -26.006439221922     -1.066E-14 9.792E-12 0.000E+00
 ETOT 54  -26.006439221922      2.132E-14 4.464E-12 0.000E+00
 ETOT 55  -26.006439221922      0.000E+00 4.435E-12 0.000E+00
 ETOT 56  -26.006439221922     -2.487E-14 2.020E-12 0.000E+00
 ETOT 57  -26.006439221922      7.105E-15 2.009E-12 0.000E+00
 ETOT 58  -26.006439221922      7.105E-15 9.138E-13 0.000E+00
 ETOT 59  -26.006439221922      3.553E-15 9.101E-13 0.000E+00
 ETOT 60  -26.006439221922      3.553E-15 4.135E-13 0.000E+00
 ETOT 61  -26.006439221922     -1.421E-14 4.123E-13 0.000E+00
 ETOT 62  -26.006439221922      7.105E-15 1.871E-13 0.000E+00
 ETOT 63  -26.006439221922     -1.421E-14 1.868E-13 0.000E+00
 ETOT 64  -26.006439221922      2.842E-14 8.470E-14 0.000E+00
 ETOT 65  -26.006439221922      0.000E+00 8.461E-14 0.000E+00
 ETOT 66  -26.006439221922     -2.132E-14 3.834E-14 0.000E+00
 ETOT 67  -26.006439221922      3.553E-15 3.834E-14 0.000E+00
 ETOT 68  -26.006439221922     -1.066E-14 1.735E-14 0.000E+00
 ETOT 69  -26.006439221922      1.421E-14 1.737E-14 0.000E+00
 ETOT 70  -26.006439221922      0.000E+00 7.856E-15 0.000E+00
 ETOT 71  -26.006439221922      0.000E+00 7.869E-15 0.000E+00
 ETOT 72  -26.006439221922     -7.105E-15 3.557E-15 0.000E+00
 ETOT 73  -26.006439221922     -1.421E-14 3.566E-15 0.000E+00
 ETOT 74  -26.006439221922      1.421E-14 1.610E-15 0.000E+00
 ETOT 75  -26.006439221922      1.421E-14 1.616E-15 0.000E+00
 ETOT 76  -26.006439221922     -7.105E-15 7.292E-16 0.000E+00
 ETOT 77  -26.006439221922      7.105E-15 7.321E-16 0.000E+00
 ETOT 78  -26.006439221922      1.421E-14 3.302E-16 0.000E+00
 ETOT 79  -26.006439221922     -4.619E-14 3.317E-16 0.000E+00
 ETOT 80  -26.006439221922      4.263E-14 1.495E-16 0.000E+00
 ETOT 81  -26.006439221922     -2.132E-14 1.503E-16 0.000E+00
 ETOT 82  -26.006439221922      3.553E-15 6.771E-17 0.000E+00
 ETOT 83  -26.006439221922      7.105E-15 6.811E-17 0.000E+00
 ETOT 84  -26.006439221922      0.000E+00 3.066E-17 0.000E+00
 ETOT 85  -26.006439221922      3.553E-15 3.087E-17 0.000E+00
 ETOT 86  -26.006439221922     -1.776E-14 1.389E-17 0.000E+00
 ETOT 87  -26.006439221922      7.105E-15 1.399E-17 0.000E+00
 ETOT 88  -26.006439221922      0.000E+00 6.290E-18 0.000E+00
 ETOT 89  -26.006439221922      0.000E+00 6.339E-18 0.000E+00
 ETOT 90  -26.006439221922      1.421E-14 2.849E-18 0.000E+00
 ETOT 91  -26.006439221922      0.000E+00 2.873E-18 0.000E+00
 ETOT 92  -26.006439221922     -3.553E-15 1.290E-18 0.000E+00
 ETOT 93  -26.006439221922      3.553E-15 1.302E-18 0.000E+00
 ETOT 94  -26.006439221922     -1.421E-14 9.986E-19 0.000E+00
 
 At SCF step   94   max residual=  9.99E-19 < tolwfr=  1.00E-18 =>converged.
================================================================================
 
 ----iterations are completed or convergence reached----
 
 Mean square residual over all n,k,spin=  -1.1111E-02; max=  9.9863E-19
   0.0000  0.0000  0.0000    1  9.98334E-19 kpt; spin; max resid(k); each band:
  8.02E-20 7.50E-19 5.18E-19 9.74E-19 7.05E-19 4.33E-19 3.13E-19 7.81E-19
  9.98E-19 7.96E-19 9.41E-19 7.15E-19 7.75E-19 9.07E-19 8.09E-19 9.27E-19
 -1.00E-01-1.00E-01
   0.2500  0.0000  0.0000    1  9.38793E-19 kpt; spin; max resid(k); each band:
  1.32E-19 1.32E-19 8.75E-19 8.79E-19 4.35E-19 5.82E-19 8.78E-19 5.56E-19
  3.95E-19 6.91E-19 5.18E-19 9.01E-19 7.12E-19 9.39E-19 8.84E-19 5.85E-19
 -1.00E-01-1.00E-01
   0.5000  0.0000  0.0000    1  9.22550E-19 kpt; spin; max resid(k); each band:
  5.98E-19 1.96E-19 9.10E-19 4.46E-19 8.12E-19 9.23E-19 8.61E-19 8.04E-19
  5.70E-19 8.70E-19 5.49E-19 8.15E-19 8.37E-19 6.88E-19 6.00E-19 6.03E-19
 -1.00E-01-1.00E-01
   0.0000  0.2500  0.0000    1  9.98628E-19 kpt; spin; max resid(k); each band:
  4.83E-19 6.06E-19 6.07E-19 9.99E-19 8.79E-19 3.16E-19 5.98E-19 9.54E-19
  6.11E-19 6.75E-19 9.50E-19 3.82E-19 9.49E-19 4.19E-19 4.25E-19 6.14E-19
 -1.00E-01-1.00E-01
   0.2500  0.2500  0.0000    1  9.33850E-19 kpt; spin; max resid(k); each band:
  2.45E-19 4.52E-19 5.82E-19 4.98E-19 7.35E-19 7.88E-19 7.44E-19 8.24E-19
  5.18E-19 9.34E-19 9.29E-19 9.21E-19 7.09E-19 5.37E-19 8.16E-19 6.64E-19
 -1.00E-01-1.00E-01
   0.5000  0.2500  0.0000    1  9.31760E-19 kpt; spin; max resid(k); each band:
  9.32E-19 7.57E-19 1.13E-19 6.42E-19 3.55E-19 7.19E-19 6.24E-19 5.89E-19
  8.70E-19 4.66E-19 6.48E-19 7.01E-19 3.47E-19 9.13E-19 8.10E-19 5.96E-19
 -1.00E-01-1.00E-01
  -0.2500  0.2500  0.0000    1  9.33849E-19 kpt; spin; max resid(k); each band:
  2.45E-19 4.52E-19 5.82E-19 4.98E-19 7.35E-19 7.88E-19 7.44E-19 8.24E-19
  5.18E-19 9.34E-19 9.29E-19 9.21E-19 7.09E-19 5.37E-19 8.16E-19 6.64E-19
 -1.00E-01-1.00E-01
   0.0000  0.5000  0.0000    1  9.76538E-19 kpt; spin; max resid(k); each band:
  3.38E-19 9.75E-19 8.28E-19 1.00E-19 8.89E-19 6.88E-19 8.03E-19 8.34E-19
  5.75E-19 4.10E-19 6.11E-19 9.77E-19 9.59E-19 8.26E-19 5.78E-19 1.95E-19
 -1.00E-01-1.00E-01
   0.2500  0.5000  0.0000    1  9.84356E-19 kpt; spin; max resid(k); each band:
  2.39E-19 5.39E-19 5.05E-19 9.57E-19 7.33E-19 4.01E-19 2.28E-19 8.50E-19
  3.92E-19 7.19E-19 6.82E-19 4.23E-19 5.02E-19 8.68E-19 8.43E-19 9.84E-19
 -1.00E-01-1.00E-01
   0.5000  0.5000  0.0000    1  8.90694E-19 kpt; spin; max resid(k); each band:
  2.86E-19 2.06E-19 6.54E-19 7.72E-19 3.44E-19 4.99E-19 3.93E-19 6.90E-19
  2.34E-19 7.41E-19 2.02E-19 2.80E-19 8.91E-19 8.01E-19 7.41E-19 7.05E-19
 -1.00E-01-1.00E-01
   0.0000  0.0000  0.2500    1  9.98627E-19 kpt; spin; max resid(k); each band:
  4.83E-19 6.06E-19 6.07E-19 9.99E-19 8.79E-19 3.16E-19 5.98E-19 9.54E-19
  6.11E-19 6.75E-19 9.50E-19 3.82E-19 9.49E-19 4.19E-19 4.25E-19 6.14E-19
 -1.00E-01-1.00E-01
   0.2500  0.0000  0.2500    1  9.33850E-19 kpt; spin; max resid(k); each band:
  2.45E-19 4.52E-19 5.82E-19 4.98E-19 7.35E-19 7.88E-19 7.44E-19 8.24E-19
  5.18E-19 9.34E-19 9.29E-19 9.21E-19 7.09E-19 5.37E-19 8.16E-19 6.64E-19
 -1.00E-01-1.00E-01
   0.5000  0.0000  0.2500    1  9.31760E-19 kpt; spin; max resid(k); each band:
  9.32E-19 7.57E-19 1.13E-19 6.42E-19 3.55E-19 7.19E-19 6.24E-19 5.89E-19
  8.70E-19 4.66E-19 6.48E-19 7.01E-19 3.47E-19 9.13E-19 8.10E-19 5.96E-19
 -1.00E-01-1.00E-01
  -0.2500  0.0000  0.2500    1  9.33851E-19 kpt; spin; max resid(k); each band:
  2.45E-19 4.52E-19 5.82E-19 4.98E-19 7.35E-19 7.88E-19 7.44E-19 8.24E-19
  5.18E-19 9.34E-19 9.29E-19 9.21E-19 7.09E-19 5.37E-19 8.16E-19 6.64E-19
 -1.00E-01-1.00E-01
   0.0000  0.2500  0.2500    1  9.65318E-19 kpt; spin; max resid(k); each band:
  3.24E-19 2.63E-19 8.02E-19 7.04E-19 9.63E-19 9.15E-19 5.90E-19 9.65E-19
  8.42E-19 3.04E-19 8.77E-19 7.93E-19 5.47E-19 8.03E-19 7.94E-19 5.84E-19
 -1.00E-01-1.00E-01
   0.2500  0.2500  0.2500    1  7.98573E-19 kpt; spin; max resid(k); each band:
  2.53E-19 7.99E-19 6.60E-19 7.72E-19 2.65E-19 1.98E-19 6.83E-19 6.13E-19
  6.86E-19 6.52E-19 7.07E-19 4.85E-19 6.08E-19 6.88E-19 5.99E-19 7.20E-19
 -1.00E-01-1.00E-01
   0.5000  0.2500  0.2500    1  9.23198E-19 kpt; spin; max resid(k); each band:
  4.39E-19 9.11E-19 7.00E-19 9.01E-19 6.17E-19 4.99E-19 2.59E-19 7.84E-19
  8.12E-19 3.79E-19 5.66E-19 8.90E-19 6.66E-19 8.37E-19 7.12E-19 9.23E-19
 -1.00E-01-1.00E-01
  -0.2500  0.2500  0.2500    1  7.98573E-19 kpt; spin; max resid(k); each band:
  2.53E-19 7.99E-19 6.60E-19 7.72E-19 2.65E-19 1.98E-19 6.83E-19 6.13E-19
  6.86E-19 6.52E-19 7.07E-19 4.85E-19 6.08E-19 6.88E-19 5.99E-19 7.20E-19
 -1.00E-01-1.00E-01
   0.0000  0.5000  0.2500    1  9.36318E-19 kpt; spin; max resid(k); each band:
  6.18E-19 8.97E-19 4.05E-19 7.30E-19 7.51E-19 8.86E-19 9.21E-19 8.60E-19
  7.87E-19 7.92E-19 2.86E-19 9.36E-19 5.95E-19 8.10E-19 5.15E-19 9.33E-19
 -1.00E-01-1.00E-01
   0.2500  0.5000  0.2500    1  9.58502E-19 kpt; spin; max resid(k); each band:
  5.94E-19 2.83E-19 4.59E-19 5.85E-19 6.63E-19 7.25E-19 6.29E-19 4.84E-19
  7.16E-19 6.50E-19 4.02E-19 9.59E-19 6.53E-19 3.88E-19 3.97E-19 7.90E-19
 -1.00E-01-1.00E-01
   0.5000  0.5000  0.2500    1  9.73235E-19 kpt; spin; max resid(k); each band:
  3.68E-19 5.76E-19 5.33E-19 5.69E-19 9.73E-19 6.68E-19 5.63E-19 2.19E-19
  3.85E-19 3.33E-19 9.65E-19 5.36E-19 6.62E-19 8.30E-19 6.96E-19 9.29E-19
 -1.00E-01-1.00E-01
  -0.2500  0.5000  0.2500    1  9.58501E-19 kpt; spin; max resid(k); each band:
  5.94E-19 2.83E-19 4.59E-19 5.85E-19 6.63E-19 7.25E-19 6.29E-19 4.84E-19
  7.16E-19 6.50E-19 4.02E-19 9.59E-19 6.53E-19 3.88E-19 3.97E-19 7.90E-19
 -1.00E-01-1.00E-01
   0.0000 -0.2500  0.2500    1  9.65317E-19 kpt; spin; max resid(k); each band:
  3.24E-19 2.63E-19 8.02E-19 7.04E-19 9.63E-19 9.15E-19 5.90E-19 9.65E-19
  8.42E-19 3.04E-19 8.77E-19 7.93E-19 5.47E-19 8.03E-19 7.94E-19 5.84E-19
 -1.00E-01-1.00E-01
   0.2500 -0.2500  0.2500    1  7.98573E-19 kpt; spin; max resid(k); each band:
  2.53E-19 7.99E-19 6.60E-19 7.72E-19 2.65E-19 1.98E-19 6.83E-19 6.13E-19
  6.86E-19 6.52E-19 7.07E-19 4.85E-19 6.08E-19 6.88E-19 5.99E-19 7.20E-19
 -1.00E-01-1.00E-01
   0.5000 -0.2500  0.2500    1  9.23199E-19 kpt; spin; max resid(k); each band:
  4.39E-19 9.11E-19 7.00E-19 9.01E-19 6.17E-19 4.99E-19 2.59E-19 7.84E-19
  8.12E-19 3.79E-19 5.66E-19 8.90E-19 6.66E-19 8.37E-19 7.12E-19 9.23E-19
 -1.00E-01-1.00E-01
  -0.2500 -0.2500  0.2500    1  7.98573E-19 kpt; spin; max resid(k); each band:
  2.53E-19 7.99E-19 6.60E-19 7.72E-19 2.65E-19 1.98E-19 6.83E-19 6.13E-19
  6.86E-19 6.52E-19 7.07E-19 4.85E-19 6.08E-19 6.88E-19 5.99E-19 7.20E-19
 -1.00E-01-1.00E-01
   0.0000  0.0000  0.5000    1  9.76539E-19 kpt; spin; max resid(k); each band:
  3.38E-19 9.75E-19 8.28E-19 1.00E-19 8.89E-19 6.88E-19 8.03E-19 8.34E-19
  5.75E-19 4.10E-19 6.11E-19 9.77E-19 9.59E-19 8.26E-19 5.78E-19 1.95E-19
 -1.00E-01-1.00E-01
   0.2500  0.0000  0.5000    1  9.84384E-19 kpt; spin; max resid(k); each band:
  2.39E-19 5.39E-19 5.05E-19 9.57E-19 7.33E-19 4.01E-19 2.28E-19 8.50E-19
  3.92E-19 7.19E-19 6.82E-19 4.23E-19 5.02E-19 8.68E-19 8.43E-19 9.84E-19
 -1.00E-01-1.00E-01
   0.5000  0.0000  0.5000    1  8.90692E-19 kpt; spin; max resid(k); each band:
  2.86E-19 2.06E-19 6.54E-19 7.72E-19 3.44E-19 4.99E-19 3.93E-19 6.90E-19
  2.34E-19 7.41E-19 2.02E-19 2.80E-19 8.91E-19 8.01E-19 7.41E-19 7.05E-19
 -1.00E-01-1.00E-01
[...]
                       2.000000  2.000000  2.000000  2.000000  2.000000  2.000000
                       1.998788  1.998788  1.968754  0.000000  0.000000  0.000000
                       2.000000  2.000000  2.000000  2.000000  2.000000  2.000000
                       2.000000  2.000000  2.000000  2.000000  2.000000  2.000000
                       1.999945  1.999667  1.997644  0.000001  0.000000  0.000000
                       2.000000  2.000000  2.000000  2.000000  2.000000  2.000000
                       2.000000  2.000000  2.000000  2.000000  2.000000  2.000000
                       1.999969  1.999969  1.978473  0.000000  0.000000  0.000000
                       2.000000  2.000000  2.000000  2.000000  2.000000  2.000000
                       2.000000  2.000000  2.000000  2.000000  2.000000  2.000000
                       1.998788  1.998788  1.968754  0.000000  0.000000  0.000000
                       2.000000  2.000000  2.000000  2.000000  2.000000  2.000000
                       2.000000  2.000000  2.000000  2.000000  2.000000  2.000000
                       1.955061  1.955061  1.955061  0.000000  0.000000  0.000000
              occ3     2.000000  2.000000  2.000000  2.000000  2.000000  2.000000
                       2.000000  2.000000  2.000000  1.999975  1.999975  1.999975
                       1.984364  1.984364  1.984364  0.064593  0.064593  0.064593
                       2.000000  2.000000  2.000000  2.000000  2.000000  2.000000
                       2.000000  2.000000  2.000000  2.000000  2.000000  2.000000
                       2.000000  1.998628  1.998628  0.043578  0.000126  0.000126
                       2.000000  2.000000  2.000000  2.000000  2.000000  2.000000
                       2.000000  2.000000  2.000000  2.000000  2.000000  2.000000
                       2.000000  1.999866  1.999866  0.028210  0.000000  0.000000
                       2.000000  2.000000  2.000000  2.000000  2.000000  2.000000
                       2.000000  2.000000  2.000000  2.000000  2.000000  2.000000
                       2.000000  1.998628  1.998628  0.043578  0.000126  0.000126
                       2.000000  2.000000  2.000000  2.000000  2.000000  2.000000
                       2.000000  2.000000  2.000000  2.000000  2.000000  2.000000
                       1.999988  1.999974  1.998682  0.000171  0.000063  0.000007
                       2.000000  2.000000  2.000000  2.000000  2.000000  2.000000
                       2.000000  2.000000  2.000000  2.000000  2.000000  2.000000
                       2.000000  1.999996  1.998807  0.000082  0.000000  0.000000
                       2.000000  2.000000  2.000000  2.000000  2.000000  2.000000
                       2.000000  2.000000  2.000000  2.000000  2.000000  2.000000
                       1.999988  1.999974  1.998682  0.000171  0.000063  0.000007
                       2.000000  2.000000  2.000000  2.000000  2.000000  2.000000
                       2.000000  2.000000  2.000000  2.000000  2.000000  2.000000
                       2.000000  1.999866  1.999866  0.028210  0.000000  0.000000
                       2.000000  2.000000  2.000000  2.000000  2.000000  2.000000
                       2.000000  2.000000  2.000000  2.000000  2.000000  2.000000
                       2.000000  1.999996  1.998807  0.000082  0.000000  0.000000
                       2.000000  2.000000  2.000000  2.000000  2.000000  2.000000
                       2.000000  2.000000  2.000000  2.000000  2.000000  2.000000
                       1.999969  1.999969  1.978473  0.000000  0.000000  0.000000
                       2.000000  2.000000  2.000000  2.000000  2.000000  2.000000
                       2.000000  2.000000  2.000000  2.000000  2.000000  2.000000
                       2.000000  1.998628  1.998628  0.043578  0.000126  0.000126
                       2.000000  2.000000  2.000000  2.000000  2.000000  2.000000
                       2.000000  2.000000  2.000000  2.000000  2.000000  2.000000
                       1.999988  1.999974  1.998682  0.000171  0.000063  0.000007
                       2.000000  2.000000  2.000000  2.000000  2.000000  2.000000
                       2.000000  2.000000  2.000000  2.000000  2.000000  2.000000
                       2.000000  1.999996  1.998807  0.000082  0.000000  0.000000
                       2.000000  2.000000  2.000000  2.000000  2.000000  2.000000
                       2.000000  2.000000  2.000000  2.000000  2.000000  2.000000
                       1.999988  1.999974  1.998682  0.000171  0.000063  0.000007
                       2.000000  2.000000  2.000000  2.000000  2.000000  2.000000
                       2.000000  2.000000  2.000000  2.000000  2.000000  2.000000
                       1.999988  1.999974  1.998682  0.000171  0.000063  0.000007
                       2.000000  2.000000  2.000000  2.000000  2.000000  2.000000
                       2.000000  2.000000  2.000000  2.000000  2.000000  2.000000
                       1.999794  1.999794  1.998426  0.000003  0.000002  0.000002
                       2.000000  2.000000  2.000000  2.000000  2.000000  2.000000
                       2.000000  2.000000  2.000000  2.000000  2.000000  2.000000
                       1.999945  1.999667  1.997644  0.000001  0.000000  0.000000
                       2.000000  2.000000  2.000000  2.000000  2.000000  2.000000
                       2.000000  2.000000  2.000000  2.000000  2.000000  2.000000
                       1.999794  1.999794  1.998426  0.000003  0.000002  0.000002
                       2.000000  2.000000  2.000000  2.000000  2.000000  2.000000
                       2.000000  2.000000  2.000000  2.000000  2.000000  2.000000
                       2.000000  1.999996  1.998807  0.000082  0.000000  0.000000
                       2.000000  2.000000  2.000000  2.000000  2.000000  2.000000
                       2.000000  2.000000  2.000000  2.000000  2.000000  2.000000
                       1.999945  1.999667  1.997644  0.000001  0.000000  0.000000
                       2.000000  2.000000  2.000000  2.000000  2.000000  2.000000
                       2.000000  2.000000  2.000000  2.000000  2.000000  2.000000
                       1.998788  1.998788  1.968754  0.000000  0.000000  0.000000
                       2.000000  2.000000  2.000000  2.000000  2.000000  2.000000
                       2.000000  2.000000  2.000000  2.000000  2.000000  2.000000
                       1.999945  1.999667  1.997644  0.000001  0.000000  0.000000
                       2.000000  2.000000  2.000000  2.000000  2.000000  2.000000
                       2.000000  2.000000  2.000000  2.000000  2.000000  2.000000
                       1.999988  1.999974  1.998682  0.000171  0.000063  0.000007
                       2.000000  2.000000  2.000000  2.000000  2.000000  2.000000
                       2.000000  2.000000  2.000000  2.000000  2.000000  2.000000
                       1.999794  1.999794  1.998426  0.000003  0.000002  0.000002
                       2.000000  2.000000  2.000000  2.000000  2.000000  2.000000
                       2.000000  2.000000  2.000000  2.000000  2.000000  2.000000
                       1.999945  1.999667  1.997644  0.000001  0.000000  0.000000
                       2.000000  2.000000  2.000000  2.000000  2.000000  2.000000
                       2.000000  2.000000  2.000000  2.000000  2.000000  2.000000
                       1.999794  1.999794  1.998426  0.000003  0.000002  0.000002
                       2.000000  2.000000  2.000000  2.000000  2.000000  2.000000
                       2.000000  2.000000  2.000000  2.000000  2.000000  2.000000
                       2.000000  1.999866  1.999866  0.028210  0.000000  0.000000
                       2.000000  2.000000  2.000000  2.000000  2.000000  2.000000
                       2.000000  2.000000  2.000000  2.000000  2.000000  2.000000
                       2.000000  1.999996  1.998807  0.000082  0.000000  0.000000
                       2.000000  2.000000  2.000000  2.000000  2.000000  2.000000
                       2.000000  2.000000  2.000000  2.000000  2.000000  2.000000
                       1.999969  1.999969  1.978473  0.000000  0.000000  0.000000
                       2.000000  2.000000  2.000000  2.000000  2.000000  2.000000
                       2.000000  2.000000  2.000000  2.000000  2.000000  2.000000
                       2.000000  1.999996  1.998807  0.000082  0.000000  0.000000
                       2.000000  2.000000  2.000000  2.000000  2.000000  2.000000
                       2.000000  2.000000  2.000000  2.000000  2.000000  2.000000
                       1.999945  1.999667  1.997644  0.000001  0.000000  0.000000
                       2.000000  2.000000  2.000000  2.000000  2.000000  2.000000
                       2.000000  2.000000  2.000000  2.000000  2.000000  2.000000
                       1.998788  1.998788  1.968754  0.000000  0.000000  0.000000
                       2.000000  2.000000  2.000000  2.000000  2.000000  2.000000
                       2.000000  2.000000  2.000000  2.000000  2.000000  2.000000
                       1.999945  1.999667  1.997644  0.000001  0.000000  0.000000
                       2.000000  2.000000  2.000000  2.000000  2.000000  2.000000
                       2.000000  2.000000  2.000000  2.000000  2.000000  2.000000
                       1.999969  1.999969  1.978473  0.000000  0.000000  0.000000
                       2.000000  2.000000  2.000000  2.000000  2.000000  2.000000
                       2.000000  2.000000  2.000000  2.000000  2.000000  2.000000
                       1.998788  1.998788  1.968754  0.000000  0.000000  0.000000
                       2.000000  2.000000  2.000000  2.000000  2.000000  2.000000
                       2.000000  2.000000  2.000000  2.000000  2.000000  2.000000
                       1.955061  1.955061  1.955061  0.000000  0.000000  0.000000
           occopt           7
        optdriver1          0
        optdriver2          1
        optdriver3          1
        optforces           1
          rfatpol1          1       1
          rfatpol2          1       1
          rfatpol3          1       5
            rfdir1          0       0       0
            rfdir2          1       1       1
            rfdir3          1       1       1
           rfelfd1          0
           rfelfd2          2
           rfelfd3          3
           rfphon1          0
           rfphon2          0
           rfphon3          1
            rprim      7.9008670295E+00  0.0000000000E+00  0.0000000000E+00
                       0.0000000000E+00  7.9008670295E+00  0.0000000000E+00
                       0.0000000000E+00  0.0000000000E+00  7.9008670295E+00
          spgroup         221
           strten1    -1.8087821598E-06 -1.8087821598E-06 -1.8087821598E-06
                       0.0000000000E+00  0.0000000000E+00  0.0000000000E+00
           strten3     0.0000000000E+00  0.0000000000E+00  0.0000000000E+00
                       0.0000000000E+00  0.0000000000E+00  0.0000000000E+00
           symrel      1  0  0   0  1  0   0  0  1      -1  0  0   0 -1  0   0  0 -1
                      -1  0  0   0  1  0   0  0 -1       1  0  0   0 -1  0   0  0  1
                      -1  0  0   0 -1  0   0  0  1       1  0  0   0  1  0   0  0 -1
                       1  0  0   0 -1  0   0  0 -1      -1  0  0   0  1  0   0  0  1
                       0  1  0   1  0  0   0  0  1       0 -1  0  -1  0  0   0  0 -1
                       0 -1  0   1  0  0   0  0 -1       0  1  0  -1  0  0   0  0  1
                       0 -1  0  -1  0  0   0  0  1       0  1  0   1  0  0   0  0 -1
                       0  1  0  -1  0  0   0  0 -1       0 -1  0   1  0  0   0  0  1
                       0  0  1   1  0  0   0  1  0       0  0 -1  -1  0  0   0 -1  0
                       0  0 -1   1  0  0   0 -1  0       0  0  1  -1  0  0   0  1  0
                       0  0 -1  -1  0  0   0  1  0       0  0  1   1  0  0   0 -1  0
                       0  0  1  -1  0  0   0 -1  0       0  0 -1   1  0  0   0  1  0
                       1  0  0   0  0  1   0  1  0      -1  0  0   0  0 -1   0 -1  0
                      -1  0  0   0  0  1   0 -1  0       1  0  0   0  0 -1   0  1  0
                      -1  0  0   0  0 -1   0  1  0       1  0  0   0  0  1   0 -1  0
                       1  0  0   0  0 -1   0 -1  0      -1  0  0   0  0  1   0  1  0
                       0  1  0   0  0  1   1  0  0       0 -1  0   0  0 -1  -1  0  0
                       0 -1  0   0  0  1  -1  0  0       0  1  0   0  0 -1   1  0  0
                       0 -1  0   0  0 -1   1  0  0       0  1  0   0  0  1  -1  0  0
                       0  1  0   0  0 -1  -1  0  0       0 -1  0   0  0  1   1  0  0
                       0  0  1   0  1  0   1  0  0       0  0 -1   0 -1  0  -1  0  0
                       0  0 -1   0  1  0  -1  0  0       0  0  1   0 -1  0   1  0  0
                       0  0 -1   0 -1  0   1  0  0       0  0  1   0  1  0  -1  0  0
                       0  0  1   0 -1  0  -1  0  0       0  0 -1   0  1  0   1  0  0
           tolvrs1     1.00000000E-14
           tolvrs2     0.00000000E+00
           tolvrs3     1.00000000E-14
           tolwfr1     0.00000000E+00
           tolwfr2     1.00000000E-18
           tolwfr3     0.00000000E+00
           tsmear      2.00000000E-02 Hartree
            typat      1  1  1  2  3
              wtk1       0.01563    0.09375    0.04688    0.18750    0.18750    0.04688
                         0.12500    0.18750    0.09375    0.01563
              wtk2       0.01563    0.03125    0.01563    0.03125    0.03125    0.03125
                         0.03125    0.01563    0.03125    0.01563    0.03125    0.03125
                         0.03125    0.03125    0.03125    0.03125    0.03125    0.03125
                         0.03125    0.03125    0.03125    0.03125    0.03125    0.03125
                         0.03125    0.03125    0.01563    0.03125    0.01563    0.03125
                         0.03125    0.03125    0.03125    0.01563    0.03125    0.01563
              wtk3       0.01563    0.03125    0.01563    0.03125    0.03125    0.03125
                         0.03125    0.01563    0.03125    0.01563    0.03125    0.03125
                         0.03125    0.03125    0.03125    0.03125    0.03125    0.03125
                         0.03125    0.03125    0.03125    0.03125    0.03125    0.03125
                         0.03125    0.03125    0.01563    0.03125    0.01563    0.03125
                         0.03125    0.03125    0.03125    0.01563    0.03125    0.01563
           xangst      2.0904793801E+00  2.0904793801E+00  0.0000000000E+00
                       2.0904793801E+00  0.0000000000E+00  2.0904793801E+00
                       0.0000000000E+00  2.0904793801E+00  2.0904793801E+00
                       0.0000000000E+00  0.0000000000E+00  0.0000000000E+00
                       2.0904793801E+00  2.0904793801E+00  2.0904793801E+00
            xcart      3.9504335148E+00  3.9504335148E+00  0.0000000000E+00
                       3.9504335148E+00  0.0000000000E+00  3.9504335148E+00
                       0.0000000000E+00  3.9504335148E+00  3.9504335148E+00
                       0.0000000000E+00  0.0000000000E+00  0.0000000000E+00
                       3.9504335148E+00  3.9504335148E+00  3.9504335148E+00
             xred      5.0000000000E-01  5.0000000000E-01  0.0000000000E+00
                       5.0000000000E-01  0.0000000000E+00  5.0000000000E-01
                       0.0000000000E+00  5.0000000000E-01  5.0000000000E-01
                       0.0000000000E+00  0.0000000000E+00  0.0000000000E+00
                       5.0000000000E-01  5.0000000000E-01  5.0000000000E-01
            znucl        8.00000   56.00000   22.00000
 
================================================================================


- Timing analysis has been suppressed with timopt=0



================================================================================

 Suggested references for the acknowledgment of ABINIT usage.

 The users of ABINIT have little formal obligations with respect to the ABINIT group
 (those specified in the GNU General Public License, http://www.gnu.org/copyleft/gpl.txt).
 However, it is common practice in the scientific literature,
 to acknowledge the efforts of people that have made the research possible.
 In this spirit, please find below suggested citations of work written by ABINIT developers,
 corresponding to implementations inside of ABINIT that you have used in the present run.
 Note also that it will be of great value to readers of publications presenting these results,
 to read papers enabling them to understand the theoretical formalism and details
 of the ABINIT implementation.
 For information on why they are suggested, see also http://www.abinit.org/about/?text=acknowledgments.

 [1] First-principles responses of solids to atomic displacements and homogeneous electric fields:,
 implementation of a conjugate-gradient algorithm. X. Gonze, Phys. Rev. B55, 10337 (1997).
 Comment : Non-vanishing rfphon and/or rfelfd, in the norm-conserving case.

 [2] Dynamical matrices, Born effective charges, dielectric permittivity tensors, and ,
 interatomic force constants from density-functional perturbation theory,
 X. Gonze and C. Lee, Phys. Rev. B55, 10355 (1997).
 Comment : Non-vanishing rfphon and/or rfelfd, in the norm-conserving case.

 [3] ABINIT : First-principles approach of materials and nanosystem properties.
 X. Gonze, B. Amadon, P.-M. Anglade, J.-M. Beuken, F. Bottin, P. Boulanger, F. Bruneval,
 D. Caliste, R. Caracas, M. Cote, T. Deutsch, L. Genovese, Ph. Ghosez, M. Giantomassi
 S. Goedecker, D.R. Hamann, P. Hermet, F. Jollet, G. Jomard, S. Leroux, M. Mancini, S. Mazevet,
 M.J.T. Oliveira, G. Onida, Y. Pouillon, T. Rangel, G.-M. Rignanese, D. Sangalli, R. Shaltaf,
 M. Torrent, M.J. Verstraete, G. Zerah, J.W. Zwanziger
 Computer Phys. Comm. 180, 2582-2615 (2009).
 Comment : the third generic paper describing the ABINIT project.
 Note that a version of this paper, that is not formatted for Computer Phys. Comm. 
 is available at http://www.abinit.org/about/ABINIT_CPC_v10.pdf .
 The licence allows the authors to put it on the Web.

 [4] A brief introduction to the ABINIT software package.
 X. Gonze, G.-M. Rignanese, M. Verstraete, J.-M. Beuken, Y. Pouillon, R. Caracas, F. Jollet,
 M. Torrent, G. Zerah, M. Mikami, Ph. Ghosez, M. Veithen, J.-Y. Raty, V. Olevano, F. Bruneval,
 L. Reining, R. Godby, G. Onida, D.R. Hamann, and D.C. Allan.
 Z. Kristallogr. 220, 558-562 (2005).
 Comment : the second generic paper describing the ABINIT project. Note that this paper
 should be cited especially if you are using the GW part of ABINIT, as several authors
 of this part are not in the list of authors of the first or third paper.
 The .pdf of the latter paper is available at http://www.abinit.org/about/zfk_0505-06_558-562.pdf.
 Note that it should not redistributed (Copyright by Oldenburg Wissenshaftverlag,
 the licence allows the authors to put it on the Web).


 And optionally :

 [5] First-principles computation of material properties : the ABINIT software project. 
 X. Gonze, J.-M. Beuken, R. Caracas, F. Detraux, M. Fuchs, G.-M. Rignanese, L. Sindic,
 M. Verstraete, G. Zerah, F. Jollet, M. Torrent, A. Roy, M. Mikami, Ph. Ghosez, J.-Y. Raty, D.C. Allan.
 Computational Materials Science 25, 478-492 (2002). http://dx.doi.org/10.1016/S0927-0256(02)00325-7
 Comment : the original paper describing the ABINIT project.
-
- Proc.   0 individual time (sec): cpu=        690.2  wall=        690.8
 
================================================================================
 
 Calculation completed.
.Delivered    0 WARNINGs and   0 COMMENTs to log file.
+Overall time at end (sec) : cpu=      22106.0  wall=      22104.8
