 vasp.5.4.4.18Apr17-6-g9f103f2a35 (build May 20 2017 13:34:48) complex          
  
 executed on      Linux_Leeds_IFC date 2017.06.04  16:06:41
 running on   24 total cores
 distrk:  each k-point on   24 cores,    1 groups
 distr:  one band on NCORES_PER_BAND=   1 cores,   24 groups


--------------------------------------------------------------------------------------------------------


 INCAR:
 POTCAR:    PAW_PBE Na_pv 19Sep2006               
 POTCAR:    PAW_PBE S 06Sep2000                   
 POTCAR:    PAW_PBE O 08Apr2002                   

 ----------------------------------------------------------------------------- 
|                                                                             |
|           W    W    AA    RRRRR   N    N  II  N    N   GGGG   !!!           |
|           W    W   A  A   R    R  NN   N  II  NN   N  G    G  !!!           |
|           W    W  A    A  R    R  N N  N  II  N N  N  G       !!!           |
|           W WW W  AAAAAA  RRRRR   N  N N  II  N  N N  G  GGG   !            |
|           WW  WW  A    A  R   R   N   NN  II  N   NN  G    G                |
|           W    W  A    A  R    R  N    N  II  N    N   GGGG   !!!           |
|                                                                             |
|      For optimal performance we recommend to set                            |
|        NCORE= 4 - approx SQRT( number of cores)                             |
|      NCORE specifies how many cores store one orbital (NPAR=cpu/NCORE).     |
|      This setting can  greatly improve the performance of VASP for DFT.     |
|      The default,   NCORE=1            might be grossly inefficient         |
|      on modern multi-core architectures or massively parallel machines.     |
|      Do your own testing !!!!                                               |
|      Unfortunately you need to use the default for GW and RPA calculations. |
|      (for HF NCORE is supported but not extensively tested yet)             |
|                                                                             |
 ----------------------------------------------------------------------------- 

 POTCAR:    PAW_PBE Na_pv 19Sep2006               
   VRHFIN =Na: p6s1                                                             
   LEXCH  = PE                                                                  
   EATOM  =   766.0439 eV,   56.3026 Ry                                         
                                                                                
   TITEL  = PAW_PBE Na_pv 19Sep2006                                             
   LULTRA =        F    use ultrasoft PP ?                                      
   IUNSCR =        1    unscreen: 0-lin 1-nonlin 2-no                           
   RPACOR =    1.800    partial core radius                                     
   POMASS =   22.990; ZVAL   =    7.000    mass and valenz                      
   RCORE  =    2.200    outmost cutoff radius                                   
   RWIGS  =    2.200; RWIGS  =    1.164    wigner-seitz radius (au A)           
   ENMAX  =  259.561; ENMIN  =  194.671 eV                                      
   ICORE  =        2    local potential                                         
   LCOR   =        T    correct aug charges                                     
   LPAW   =        T    paw PP                                                  
   EAUG   =  368.056                                                            
   DEXC   =    0.000                                                            
   RMAX   =    2.245    core radius for proj-oper                               
   RAUG   =    1.300    factor for augmentation sphere                          
   RDEP   =    2.259    radius for radial grids                                 
   RDEPT  =    1.738    core radius for aug-charge                              
                                                                                
   Atomic configuration                                                         
    5 entries                                                                   
     n  l   j            E        occ.                                          
     1  0  0.50     -1033.6933   2.0000                                         
     2  0  0.50       -56.7526   2.0000                                         
     2  1  1.50       -28.6721   6.0000                                         
     3  0  0.50        -2.7440   1.0000                                         
     3  2  1.50        -1.3606   0.0000                                         
   Description                                                                  
     l       E           TYP  RCUT    TYP  RCUT                                 
     1    -28.6720912     23  2.000                                             
     1      6.8029130     23  2.000                                             
     0     -2.7439560     23  2.200                                             
     0     34.0145650     23  2.200                                             
     2     -1.3605826     23  2.200                                             
  local pseudopotential read in
  partial core-charges read in
  partial kinetic energy density read in
  atomic valenz-charges read in
  non local Contribution for L=           1  read in
    real space projection operators read in
  non local Contribution for L=           1  read in
    real space projection operators read in
  non local Contribution for L=           0  read in
    real space projection operators read in
  non local Contribution for L=           0  read in
    real space projection operators read in
    PAW grid and wavefunctions read in
 
   number of l-projection  operators is LMAX  =           4
   number of lm-projection operators is LMMAX =           8
 
 POTCAR:    PAW_PBE S 06Sep2000                   
   VRHFIN =S : s2p4                                                             
   LEXCH  = PE                                                                  
   EATOM  =   276.8230 eV,   20.3459 Ry                                         
                                                                                
   TITEL  = PAW_PBE S 06Sep2000                                                 
   LULTRA =        F    use ultrasoft PP ?                                      
   IUNSCR =        1    unscreen: 0-lin 1-nonlin 2-no                           
   RPACOR =    1.500    partial core radius                                     
   POMASS =   32.066; ZVAL   =    6.000    mass and valenz                      
   RCORE  =    1.900    outmost cutoff radius                                   
   RWIGS  =    2.200; RWIGS  =    1.164    wigner-seitz radius (au A)           
   ENMAX  =  258.689; ENMIN  =  194.016 eV                                      
   ICORE  =        2    local potential                                         
   LCOR   =        T    correct aug charges                                     
   LPAW   =        T    paw PP                                                  
   EAUG   =  335.092                                                            
   DEXC   =    0.000                                                            
   RMAX   =    1.942    core radius for proj-oper                               
   RAUG   =    1.300    factor for augmentation sphere                          
   RDEP   =    1.954    radius for radial grids                                 
   RDEPT  =    1.744    core radius for aug-charge                              
                                                                                
   Atomic configuration                                                         
    6 entries                                                                   
     n  l   j            E        occ.                                          
     1  0  0.50     -2405.8406   2.0000                                         
     2  0  0.50      -211.7007   2.0000                                         
     2  1  1.50      -156.4958   6.0000                                         
     3  0  0.50       -17.2562   2.0000                                         
     3  1  0.50        -7.0085   4.0000                                         
     3  2  1.50        -6.8029   0.0000                                         
   Description                                                                  
     l       E           TYP  RCUT    TYP  RCUT                                 
     0    -17.2561641     23  1.900                                             
     0    -15.8743224     23  1.900                                             
     1     -7.0085400     23  1.900                                             
     1     -2.7779785     23  1.900                                             
     2     -6.8029130     23  1.900                                             
  local pseudopotential read in
  partial core-charges read in
  partial kinetic energy density read in
  atomic valenz-charges read in
  non local Contribution for L=           0  read in
    real space projection operators read in
  non local Contribution for L=           0  read in
    real space projection operators read in
  non local Contribution for L=           1  read in
    real space projection operators read in
  non local Contribution for L=           1  read in
    real space projection operators read in
    PAW grid and wavefunctions read in
 
   number of l-projection  operators is LMAX  =           4
   number of lm-projection operators is LMMAX =           8
 
 POTCAR:    PAW_PBE O 08Apr2002                   
   VRHFIN =O: s2p4                                                              
   LEXCH  = PE                                                                  
   EATOM  =   432.3788 eV,   31.7789 Ry                                         
                                                                                
   TITEL  = PAW_PBE O 08Apr2002                                                 
   LULTRA =        F    use ultrasoft PP ?                                      
   IUNSCR =        1    unscreen: 0-lin 1-nonlin 2-no                           
   RPACOR =    1.200    partial core radius                                     
   POMASS =   16.000; ZVAL   =    6.000    mass and valenz                      
   RCORE  =    1.520    outmost cutoff radius                                   
   RWIGS  =    1.550; RWIGS  =    0.820    wigner-seitz radius (au A)           
   ENMAX  =  400.000; ENMIN  =  300.000 eV                                      
   ICORE  =        2    local potential                                         
   LCOR   =        T    correct aug charges                                     
   LPAW   =        T    paw PP                                                  
   EAUG   =  605.392                                                            
   DEXC   =    0.000                                                            
   RMAX   =    1.553    core radius for proj-oper                               
   RAUG   =    1.300    factor for augmentation sphere                          
   RDEP   =    1.550    radius for radial grids                                 
   RDEPT  =    1.329    core radius for aug-charge                              
                                                                                
   Atomic configuration                                                         
    4 entries                                                                   
     n  l   j            E        occ.                                          
     1  0  0.50      -514.6923   2.0000                                         
     2  0  0.50       -23.9615   2.0000                                         
     2  1  0.50        -9.0305   4.0000                                         
     3  2  1.50        -9.5241   0.0000                                         
   Description                                                                  
     l       E           TYP  RCUT    TYP  RCUT                                 
     0    -23.9615318     23  1.200                                             
     0     -9.5240782     23  1.200                                             
     1     -9.0304911     23  1.520                                             
     1      8.1634956     23  1.520                                             
     2     -9.5240782      7  1.500                                             
  local pseudopotential read in
  partial core-charges read in
  partial kinetic energy density read in
  kinetic energy density of atom read in
  atomic valenz-charges read in
  non local Contribution for L=           0  read in
    real space projection operators read in
  non local Contribution for L=           0  read in
    real space projection operators read in
  non local Contribution for L=           1  read in
    real space projection operators read in
  non local Contribution for L=           1  read in
    real space projection operators read in
    PAW grid and wavefunctions read in
 
   number of l-projection  operators is LMAX  =           4
   number of lm-projection operators is LMMAX =           8
 
  PAW_PBE Na_pv 19Sep2006               :
 energy of atom  1       EATOM= -766.0439
 kinetic energy error for atom=    0.0017 (will be added to EATOM!!)
  PAW_PBE S 06Sep2000                   :
 energy of atom  2       EATOM= -276.8230
 kinetic energy error for atom=    0.0009 (will be added to EATOM!!)
  PAW_PBE O 08Apr2002                   :
 energy of atom  3       EATOM= -432.3788
 kinetic energy error for atom=    0.0168 (will be added to EATOM!!)
 
 
 POSCAR: Generated by cif2cell 1.2.10 from COD re
  positions in direct lattice
  velocities in cartesian coordinates
 exchange correlation table for  LEXCH =        8
   RHO(1)=    0.500       N(1)  =     2000
   RHO(2)=  100.500       N(2)  =     4000
 


--------------------------------------------------------------------------------------------------------


 ion  position               nearest neighbor table
   1  0.041  0.313  0.212-  12 2.30   9 2.34   7 2.35  10 2.35
   2  0.959  0.687  0.788-  11 2.30  10 2.34   8 2.35   9 2.35
   3  0.612  0.777  0.243-   9 1.45   7 1.45  11 1.45   5 1.65
   4  0.388  0.223  0.757-  10 1.45   8 1.45  12 1.45   6 1.65
   5  0.581  0.040  0.417-   6 1.50   3 1.65
   6  0.419  0.960  0.583-   5 1.50   4 1.65
   7  0.775  0.898  0.106-   3 1.45   1 2.35
   8  0.225  0.102  0.894-   4 1.45   2 2.35
   9  0.311  0.648  0.120-   3 1.45   1 2.34   2 2.35
  10  0.689  0.352  0.880-   4 1.45   2 2.34   1 2.35
  11  0.774  0.634  0.391-   3 1.45   2 2.30
  12  0.226  0.366  0.609-   4 1.45   1 2.30
 
  LATTYP: Found a triclinic cell.
 ALAT       =     4.7071027135
 B/A-ratio  =     1.6251877047
 C/A-ratio  =     1.2865091236
 COS(alpha) =     0.0014050814
 COS(beta)  =     0.2363081262
 COS(gamma) =     0.7030460928
  
  Lattice vectors:
  
 A1 = (   4.7070485494,   0.0162928024,  -0.0156349961)
 A2 = (   5.3969855049,  -5.4215432506,  -0.0278514691)
 A3 = (   1.4071374716,   1.4181252960,  -5.7167086438)


Analysis of symmetry for initial positions (statically):
=====================================================================
 Subroutine PRICEL returns:
 Original cell was already a primitive cell.
 

 Routine SETGRP: Setting up the symmetry group for a 
 triclinic supercell.


 Subroutine GETGRP returns: Found  2 space group operations
 (whereof  2 operations were pure point group operations)
 out of a pool of  2 trial point group operations.


The static configuration has the point symmetry S_2 .


Analysis of symmetry for dynamics (positions and initial velocities):
=====================================================================
 Subroutine PRICEL returns:
 Original cell was already a primitive cell.
 

 Routine SETGRP: Setting up the symmetry group for a 
 triclinic supercell.


 Subroutine GETGRP returns: Found  2 space group operations
 (whereof  2 operations were pure point group operations)
 out of a pool of  2 trial point group operations.


The dynamic configuration has the point symmetry S_2 .


 Subroutine INISYM returns: Found  2 space group operations
 (whereof  2 operations are pure point group operations),
 and found     1 'primitive' translations

 
 
 KPOINTS: Generated by cif2cell 1.2.10. k-space re

Automatic generation of k-mesh.
Space group operators:
 irot       det(A)        alpha          n_x          n_y          n_z        tau_x        tau_y        tau_z
    1     1.000000     0.000000     1.000000     0.000000     0.000000     0.000000     0.000000     0.000000
    2    -1.000000     0.000000     1.000000     0.000000     0.000000     0.000000     0.000000     0.000000
 
 Subroutine IBZKPT returns following result:
 ===========================================
 
 Found    106 irreducible k-points:
 
 Following reciprocal coordinates:
            Coordinates               Weight
  0.000000  0.000000  0.000000      1.000000
  0.142857 -0.000000 -0.000000      2.000000
  0.285714 -0.000000 -0.000000      2.000000
  0.428571 -0.000000  0.000000      2.000000
  0.000000  0.166667 -0.000000      2.000000
  0.142857  0.166667 -0.000000      2.000000
  0.285714  0.166667  0.000000      2.000000
  0.428571  0.166667 -0.000000      2.000000
 -0.428571  0.166667 -0.000000      2.000000
 -0.285714  0.166667  0.000000      2.000000
 -0.142857  0.166667  0.000000      2.000000
 -0.000000  0.333333  0.000000      2.000000
  0.142857  0.333333  0.000000      2.000000
  0.285714  0.333333 -0.000000      2.000000
  0.428571  0.333333 -0.000000      2.000000
 -0.428571  0.333333  0.000000      2.000000
 -0.285714  0.333333  0.000000      2.000000
 -0.142857  0.333333  0.000000      2.000000
  0.000000  0.500000  0.000000      1.000000
  0.142857  0.500000  0.000000      2.000000
  0.285714  0.500000  0.000000      2.000000
  0.428571  0.500000  0.000000      2.000000
  0.000000 -0.000000  0.200000      2.000000
  0.142857  0.000000  0.200000      2.000000
  0.285714 -0.000000  0.200000      2.000000
  0.428571 -0.000000  0.200000      2.000000
 -0.428571  0.000000  0.200000      2.000000
 -0.285714 -0.000000  0.200000      2.000000
 -0.142857  0.000000  0.200000      2.000000
  0.000000  0.166667  0.200000      2.000000
  0.142857  0.166667  0.200000      2.000000
  0.285714  0.166667  0.200000      2.000000
  0.428571  0.166667  0.200000      2.000000
 -0.428571  0.166667  0.200000      2.000000
 -0.285714  0.166667  0.200000      2.000000
 -0.142857  0.166667  0.200000      2.000000
  0.000000  0.333333  0.200000      2.000000
  0.142857  0.333333  0.200000      2.000000
  0.285714  0.333333  0.200000      2.000000
  0.428571  0.333333  0.200000      2.000000
 -0.428571  0.333333  0.200000      2.000000
 -0.285714  0.333333  0.200000      2.000000
 -0.142857  0.333333  0.200000      2.000000
  0.000000  0.500000  0.200000      2.000000
  0.142857  0.500000  0.200000      2.000000
  0.285714  0.500000  0.200000      2.000000
  0.428571  0.500000  0.200000      2.000000
 -0.428571  0.500000  0.200000      2.000000
 -0.285714  0.500000  0.200000      2.000000
 -0.142857  0.500000  0.200000      2.000000
  0.000000 -0.333333  0.200000      2.000000
  0.142857 -0.333333  0.200000      2.000000
  0.285714 -0.333333  0.200000      2.000000
  0.428571 -0.333333  0.200000      2.000000
 -0.428571 -0.333333  0.200000      2.000000
 -0.285714 -0.333333  0.200000      2.000000
 -0.142857 -0.333333  0.200000      2.000000
  0.000000 -0.166667  0.200000      2.000000
  0.142857 -0.166667  0.200000      2.000000
  0.285714 -0.166667  0.200000      2.000000
  0.428571 -0.166667  0.200000      2.000000
 -0.428571 -0.166667  0.200000      2.000000
 -0.285714 -0.166667  0.200000      2.000000
 -0.142857 -0.166667  0.200000      2.000000
  0.000000 -0.000000  0.400000      2.000000
  0.142857  0.000000  0.400000      2.000000
  0.285714 -0.000000  0.400000      2.000000
  0.428571 -0.000000  0.400000      2.000000
 -0.428571 -0.000000  0.400000      2.000000
 -0.285714  0.000000  0.400000      2.000000
 -0.142857  0.000000  0.400000      2.000000
  0.000000  0.166667  0.400000      2.000000
  0.142857  0.166667  0.400000      2.000000
  0.285714  0.166667  0.400000      2.000000
  0.428571  0.166667  0.400000      2.000000
 -0.428571  0.166667  0.400000      2.000000
 -0.285714  0.166667  0.400000      2.000000
 -0.142857  0.166667  0.400000      2.000000
  0.000000  0.333333  0.400000      2.000000
  0.142857  0.333333  0.400000      2.000000
  0.285714  0.333333  0.400000      2.000000
  0.428571  0.333333  0.400000      2.000000
 -0.428571  0.333333  0.400000      2.000000
 -0.285714  0.333333  0.400000      2.000000
 -0.142857  0.333333  0.400000      2.000000
  0.000000  0.500000  0.400000      2.000000
  0.142857  0.500000  0.400000      2.000000
  0.285714  0.500000  0.400000      2.000000
  0.428571  0.500000  0.400000      2.000000
 -0.428571  0.500000  0.400000      2.000000
 -0.285714  0.500000  0.400000      2.000000
 -0.142857  0.500000  0.400000      2.000000
  0.000000 -0.333333  0.400000      2.000000
  0.142857 -0.333333  0.400000      2.000000
  0.285714 -0.333333  0.400000      2.000000
  0.428571 -0.333333  0.400000      2.000000
 -0.428571 -0.333333  0.400000      2.000000
 -0.285714 -0.333333  0.400000      2.000000
 -0.142857 -0.333333  0.400000      2.000000
  0.000000 -0.166667  0.400000      2.000000
  0.142857 -0.166667  0.400000      2.000000
  0.285714 -0.166667  0.400000      2.000000
  0.428571 -0.166667  0.400000      2.000000
 -0.428571 -0.166667  0.400000      2.000000
 -0.285714 -0.166667  0.400000      2.000000
 -0.142857 -0.166667  0.400000      2.000000
 
 Following cartesian coordinates:
            Coordinates               Weight
  0.000000  0.000000  0.000000      1.000000
  0.145142  0.018325  0.040272      2.000000
  0.290283  0.036649  0.080543      2.000000
  0.435425  0.054974  0.120815      2.000000
 -0.000386  0.146374  0.036215      2.000000
  0.144755  0.164699  0.076487      2.000000
  0.289897  0.183023  0.116759      2.000000
  0.435038  0.201348  0.157030      2.000000
 -0.435811  0.091400 -0.084599      2.000000
 -0.290669  0.109725 -0.044328      2.000000
 -0.145528  0.128049 -0.004056      2.000000
 -0.000773  0.292748  0.072431      2.000000
  0.144369  0.311073  0.112702      2.000000
  0.289510  0.329397  0.152974      2.000000
  0.434652  0.347722  0.193246      2.000000
 -0.436197  0.237774 -0.048384      2.000000
 -0.291056  0.256099 -0.008112      2.000000
 -0.145914  0.274423  0.032159      2.000000
 -0.001159  0.439122  0.108646      1.000000
  0.143982  0.457447  0.148918      2.000000
  0.289124  0.475771  0.189189      2.000000
  0.434266  0.494096  0.229461      2.000000
  0.000557 -0.000305  0.167290      2.000000
  0.145698  0.018019  0.207562      2.000000
  0.290840  0.036344  0.247834      2.000000
  0.435981  0.054669  0.288105      2.000000
 -0.434868 -0.055279  0.046476      2.000000
 -0.289726 -0.036955  0.086747      2.000000
 -0.144585 -0.018630  0.127019      2.000000
  0.000170  0.146069  0.203506      2.000000
  0.145312  0.164393  0.243777      2.000000
  0.290453  0.182718  0.284049      2.000000
  0.435595  0.201043  0.324321      2.000000
 -0.435254  0.091095  0.082691      2.000000
 -0.290113  0.109419  0.122963      2.000000
 -0.144971  0.127744  0.163234      2.000000
 -0.000216  0.292443  0.239721      2.000000
  0.144926  0.310767  0.279993      2.000000
  0.290067  0.329092  0.320264      2.000000
  0.435209  0.347417  0.360536      2.000000
 -0.435641  0.237469  0.118907      2.000000
 -0.290499  0.255793  0.159178      2.000000
 -0.145358  0.274118  0.199450      2.000000
 -0.000602  0.438817  0.275937      2.000000
  0.144539  0.457141  0.316208      2.000000
  0.289681  0.475466  0.356480      2.000000
  0.434822  0.493791  0.396751      2.000000
 -0.436027  0.383843  0.155122      2.000000
 -0.290885  0.402167  0.195394      2.000000
 -0.145744  0.420492  0.235665      2.000000
  0.001329 -0.293053  0.094860      2.000000
  0.146471 -0.274728  0.135131      2.000000
  0.291613 -0.256404  0.175403      2.000000
  0.436754 -0.238079  0.215674      2.000000
 -0.434095 -0.348027 -0.025955      2.000000
 -0.288954 -0.329702  0.014316      2.000000
 -0.143812 -0.311378  0.054588      2.000000
  0.000943 -0.146679  0.131075      2.000000
  0.146085 -0.128355  0.171347      2.000000
  0.291226 -0.110030  0.211618      2.000000
  0.436368 -0.091705  0.251890      2.000000
 -0.434481 -0.201653  0.010260      2.000000
 -0.289340 -0.183328  0.050532      2.000000
 -0.144198 -0.165004  0.090803      2.000000
  0.001113 -0.000610  0.334581      2.000000
  0.146255  0.017714  0.374852      2.000000
  0.291397  0.036039  0.415124      2.000000
  0.436538  0.054364  0.455396      2.000000
 -0.434311 -0.055584  0.213766      2.000000
 -0.289170 -0.037260  0.254038      2.000000
 -0.144028 -0.018935  0.294309      2.000000
  0.000727  0.145764  0.370796      2.000000
  0.145869  0.164088  0.411068      2.000000
  0.291010  0.182413  0.451339      2.000000
  0.436152  0.200738  0.491611      2.000000
 -0.434697  0.090790  0.249982      2.000000
 -0.289556  0.109114  0.290253      2.000000
 -0.144414  0.127439  0.330525      2.000000
  0.000341  0.292138  0.407012      2.000000
  0.145482  0.310462  0.447283      2.000000
  0.290624  0.328787  0.487555      2.000000
  0.435765  0.347112  0.527826      2.000000
 -0.435084  0.237164  0.286197      2.000000
 -0.289942  0.255488  0.326469      2.000000
 -0.144801  0.273813  0.366740      2.000000
 -0.000046  0.438512  0.443227      2.000000
  0.145096  0.456836  0.483499      2.000000
  0.290237  0.475161  0.523770      2.000000
  0.435379  0.493486  0.564042      2.000000
 -0.435470  0.383538  0.322412      2.000000
 -0.290329  0.401862  0.362684      2.000000
 -0.145187  0.420187  0.402956      2.000000
  0.001886 -0.293358  0.262150      2.000000
  0.147028 -0.275034  0.302422      2.000000
  0.292169 -0.256709  0.342693      2.000000
  0.437311 -0.238384  0.382965      2.000000
 -0.433538 -0.348332  0.141335      2.000000
 -0.288397 -0.330008  0.181607      2.000000
 -0.143255 -0.311683  0.221878      2.000000
  0.001500 -0.146984  0.298365      2.000000
  0.146641 -0.128660  0.338637      2.000000
  0.291783 -0.110335  0.378909      2.000000
  0.436924 -0.092010  0.419180      2.000000
 -0.433925 -0.201958  0.177551      2.000000
 -0.288783 -0.183634  0.217822      2.000000
 -0.143642 -0.165309  0.258094      2.000000
 
 TETIRR: Found    628 inequivalent tetrahedra from     1260
 
 Subroutine IBZKPT_HF returns following result:
 ==============================================
 
 Found    210 k-points in 1st BZ
 the following    210 k-points will be used (e.g. in the exchange kernel)
 Following reciprocal coordinates:   # in IRBZ
  0.000000  0.000000  0.000000    0.00476190   1 t-inv F
  0.142857 -0.000000 -0.000000    0.00476190   2 t-inv F
  0.285714 -0.000000 -0.000000    0.00476190   3 t-inv F
  0.428571 -0.000000  0.000000    0.00476190   4 t-inv F
  0.000000  0.166667 -0.000000    0.00476190   5 t-inv F
  0.142857  0.166667 -0.000000    0.00476190   6 t-inv F
  0.285714  0.166667  0.000000    0.00476190   7 t-inv F
  0.428571  0.166667 -0.000000    0.00476190   8 t-inv F
 -0.428571  0.166667 -0.000000    0.00476190   9 t-inv F
 -0.285714  0.166667  0.000000    0.00476190  10 t-inv F
 -0.142857  0.166667  0.000000    0.00476190  11 t-inv F
 -0.000000  0.333333  0.000000    0.00476190  12 t-inv F
  0.142857  0.333333  0.000000    0.00476190  13 t-inv F
  0.285714  0.333333 -0.000000    0.00476190  14 t-inv F
  0.428571  0.333333 -0.000000    0.00476190  15 t-inv F
 -0.428571  0.333333  0.000000    0.00476190  16 t-inv F
 -0.285714  0.333333  0.000000    0.00476190  17 t-inv F
 -0.142857  0.333333  0.000000    0.00476190  18 t-inv F
  0.000000  0.500000  0.000000    0.00476190  19 t-inv F
  0.142857  0.500000  0.000000    0.00476190  20 t-inv F
  0.285714  0.500000  0.000000    0.00476190  21 t-inv F
  0.428571  0.500000  0.000000    0.00476190  22 t-inv F
  0.000000 -0.000000  0.200000    0.00476190  23 t-inv F
  0.142857  0.000000  0.200000    0.00476190  24 t-inv F
  0.285714 -0.000000  0.200000    0.00476190  25 t-inv F
  0.428571 -0.000000  0.200000    0.00476190  26 t-inv F
 -0.428571  0.000000  0.200000    0.00476190  27 t-inv F
 -0.285714 -0.000000  0.200000    0.00476190  28 t-inv F
 -0.142857  0.000000  0.200000    0.00476190  29 t-inv F
  0.000000  0.166667  0.200000    0.00476190  30 t-inv F
  0.142857  0.166667  0.200000    0.00476190  31 t-inv F
  0.285714  0.166667  0.200000    0.00476190  32 t-inv F
  0.428571  0.166667  0.200000    0.00476190  33 t-inv F
 -0.428571  0.166667  0.200000    0.00476190  34 t-inv F
 -0.285714  0.166667  0.200000    0.00476190  35 t-inv F
 -0.142857  0.166667  0.200000    0.00476190  36 t-inv F
  0.000000  0.333333  0.200000    0.00476190  37 t-inv F
  0.142857  0.333333  0.200000    0.00476190  38 t-inv F
  0.285714  0.333333  0.200000    0.00476190  39 t-inv F
  0.428571  0.333333  0.200000    0.00476190  40 t-inv F
 -0.428571  0.333333  0.200000    0.00476190  41 t-inv F
 -0.285714  0.333333  0.200000    0.00476190  42 t-inv F
 -0.142857  0.333333  0.200000    0.00476190  43 t-inv F
  0.000000  0.500000  0.200000    0.00476190  44 t-inv F
  0.142857  0.500000  0.200000    0.00476190  45 t-inv F
  0.285714  0.500000  0.200000    0.00476190  46 t-inv F
  0.428571  0.500000  0.200000    0.00476190  47 t-inv F
 -0.428571  0.500000  0.200000    0.00476190  48 t-inv F
 -0.285714  0.500000  0.200000    0.00476190  49 t-inv F
 -0.142857  0.500000  0.200000    0.00476190  50 t-inv F
  0.000000 -0.333333  0.200000    0.00476190  51 t-inv F
  0.142857 -0.333333  0.200000    0.00476190  52 t-inv F
  0.285714 -0.333333  0.200000    0.00476190  53 t-inv F
  0.428571 -0.333333  0.200000    0.00476190  54 t-inv F
 -0.428571 -0.333333  0.200000    0.00476190  55 t-inv F
 -0.285714 -0.333333  0.200000    0.00476190  56 t-inv F
 -0.142857 -0.333333  0.200000    0.00476190  57 t-inv F
  0.000000 -0.166667  0.200000    0.00476190  58 t-inv F
  0.142857 -0.166667  0.200000    0.00476190  59 t-inv F
  0.285714 -0.166667  0.200000    0.00476190  60 t-inv F
  0.428571 -0.166667  0.200000    0.00476190  61 t-inv F
 -0.428571 -0.166667  0.200000    0.00476190  62 t-inv F
 -0.285714 -0.166667  0.200000    0.00476190  63 t-inv F
 -0.142857 -0.166667  0.200000    0.00476190  64 t-inv F
  0.000000 -0.000000  0.400000    0.00476190  65 t-inv F
  0.142857  0.000000  0.400000    0.00476190  66 t-inv F
  0.285714 -0.000000  0.400000    0.00476190  67 t-inv F
  0.428571 -0.000000  0.400000    0.00476190  68 t-inv F
 -0.428571 -0.000000  0.400000    0.00476190  69 t-inv F
 -0.285714  0.000000  0.400000    0.00476190  70 t-inv F
 -0.142857  0.000000  0.400000    0.00476190  71 t-inv F
  0.000000  0.166667  0.400000    0.00476190  72 t-inv F
  0.142857  0.166667  0.400000    0.00476190  73 t-inv F
  0.285714  0.166667  0.400000    0.00476190  74 t-inv F
  0.428571  0.166667  0.400000    0.00476190  75 t-inv F
 -0.428571  0.166667  0.400000    0.00476190  76 t-inv F
 -0.285714  0.166667  0.400000    0.00476190  77 t-inv F
 -0.142857  0.166667  0.400000    0.00476190  78 t-inv F
  0.000000  0.333333  0.400000    0.00476190  79 t-inv F
  0.142857  0.333333  0.400000    0.00476190  80 t-inv F
  0.285714  0.333333  0.400000    0.00476190  81 t-inv F
  0.428571  0.333333  0.400000    0.00476190  82 t-inv F
 -0.428571  0.333333  0.400000    0.00476190  83 t-inv F
 -0.285714  0.333333  0.400000    0.00476190  84 t-inv F
 -0.142857  0.333333  0.400000    0.00476190  85 t-inv F
  0.000000  0.500000  0.400000    0.00476190  86 t-inv F
  0.142857  0.500000  0.400000    0.00476190  87 t-inv F
  0.285714  0.500000  0.400000    0.00476190  88 t-inv F
  0.428571  0.500000  0.400000    0.00476190  89 t-inv F
 -0.428571  0.500000  0.400000    0.00476190  90 t-inv F
 -0.285714  0.500000  0.400000    0.00476190  91 t-inv F
 -0.142857  0.500000  0.400000    0.00476190  92 t-inv F
  0.000000 -0.333333  0.400000    0.00476190  93 t-inv F
  0.142857 -0.333333  0.400000    0.00476190  94 t-inv F
  0.285714 -0.333333  0.400000    0.00476190  95 t-inv F
  0.428571 -0.333333  0.400000    0.00476190  96 t-inv F
 -0.428571 -0.333333  0.400000    0.00476190  97 t-inv F
 -0.285714 -0.333333  0.400000    0.00476190  98 t-inv F
 -0.142857 -0.333333  0.400000    0.00476190  99 t-inv F
  0.000000 -0.166667  0.400000    0.00476190 100 t-inv F
  0.142857 -0.166667  0.400000    0.00476190 101 t-inv F
  0.285714 -0.166667  0.400000    0.00476190 102 t-inv F
  0.428571 -0.166667  0.400000    0.00476190 103 t-inv F
 -0.428571 -0.166667  0.400000    0.00476190 104 t-inv F
 -0.285714 -0.166667  0.400000    0.00476190 105 t-inv F
 -0.142857 -0.166667  0.400000    0.00476190 106 t-inv F
 -0.142857  0.000000  0.000000    0.00476190   2 t-inv F
 -0.285714  0.000000  0.000000    0.00476190   3 t-inv F
 -0.428571  0.000000  0.000000    0.00476190   4 t-inv F
  0.000000 -0.166667  0.000000    0.00476190   5 t-inv F
 -0.142857 -0.166667  0.000000    0.00476190   6 t-inv F
 -0.285714 -0.166667  0.000000    0.00476190   7 t-inv F
 -0.428571 -0.166667  0.000000    0.00476190   8 t-inv F
  0.428571 -0.166667  0.000000    0.00476190   9 t-inv F
  0.285714 -0.166667 -0.000000    0.00476190  10 t-inv F
  0.142857 -0.166667 -0.000000    0.00476190  11 t-inv F
  0.000000 -0.333333 -0.000000    0.00476190  12 t-inv F
 -0.142857 -0.333333  0.000000    0.00476190  13 t-inv F
 -0.285714 -0.333333  0.000000    0.00476190  14 t-inv F
 -0.428571 -0.333333  0.000000    0.00476190  15 t-inv F
  0.428571 -0.333333 -0.000000    0.00476190  16 t-inv F
  0.285714 -0.333333 -0.000000    0.00476190  17 t-inv F
  0.142857 -0.333333  0.000000    0.00476190  18 t-inv F
 -0.142857 -0.500000  0.000000    0.00476190  20 t-inv F
 -0.285714 -0.500000  0.000000    0.00476190  21 t-inv F
 -0.428571 -0.500000  0.000000    0.00476190  22 t-inv F
 -0.000000  0.000000 -0.200000    0.00476190  23 t-inv F
 -0.142857 -0.000000 -0.200000    0.00476190  24 t-inv F
 -0.285714  0.000000 -0.200000    0.00476190  25 t-inv F
 -0.428571  0.000000 -0.200000    0.00476190  26 t-inv F
  0.428571 -0.000000 -0.200000    0.00476190  27 t-inv F
  0.285714  0.000000 -0.200000    0.00476190  28 t-inv F
  0.142857 -0.000000 -0.200000    0.00476190  29 t-inv F
 -0.000000 -0.166667 -0.200000    0.00476190  30 t-inv F
 -0.142857 -0.166667 -0.200000    0.00476190  31 t-inv F
 -0.285714 -0.166667 -0.200000    0.00476190  32 t-inv F
 -0.428571 -0.166667 -0.200000    0.00476190  33 t-inv F
  0.428571 -0.166667 -0.200000    0.00476190  34 t-inv F
  0.285714 -0.166667 -0.200000    0.00476190  35 t-inv F
  0.142857 -0.166667 -0.200000    0.00476190  36 t-inv F
  0.000000 -0.333333 -0.200000    0.00476190  37 t-inv F
 -0.142857 -0.333333 -0.200000    0.00476190  38 t-inv F
 -0.285714 -0.333333 -0.200000    0.00476190  39 t-inv F
 -0.428571 -0.333333 -0.200000    0.00476190  40 t-inv F
  0.428571 -0.333333 -0.200000    0.00476190  41 t-inv F
  0.285714 -0.333333 -0.200000    0.00476190  42 t-inv F
  0.142857 -0.333333 -0.200000    0.00476190  43 t-inv F
 -0.000000 -0.500000 -0.200000    0.00476190  44 t-inv F
 -0.142857 -0.500000 -0.200000    0.00476190  45 t-inv F
 -0.285714 -0.500000 -0.200000    0.00476190  46 t-inv F
 -0.428571 -0.500000 -0.200000    0.00476190  47 t-inv F
  0.428571 -0.500000 -0.200000    0.00476190  48 t-inv F
  0.285714 -0.500000 -0.200000    0.00476190  49 t-inv F
  0.142857 -0.500000 -0.200000    0.00476190  50 t-inv F
 -0.000000  0.333333 -0.200000    0.00476190  51 t-inv F
 -0.142857  0.333333 -0.200000    0.00476190  52 t-inv F
 -0.285714  0.333333 -0.200000    0.00476190  53 t-inv F
 -0.428571  0.333333 -0.200000    0.00476190  54 t-inv F
  0.428571  0.333333 -0.200000    0.00476190  55 t-inv F
  0.285714  0.333333 -0.200000    0.00476190  56 t-inv F
  0.142857  0.333333 -0.200000    0.00476190  57 t-inv F
 -0.000000  0.166667 -0.200000    0.00476190  58 t-inv F
 -0.142857  0.166667 -0.200000    0.00476190  59 t-inv F
 -0.285714  0.166667 -0.200000    0.00476190  60 t-inv F
 -0.428571  0.166667 -0.200000    0.00476190  61 t-inv F
  0.428571  0.166667 -0.200000    0.00476190  62 t-inv F
  0.285714  0.166667 -0.200000    0.00476190  63 t-inv F
  0.142857  0.166667 -0.200000    0.00476190  64 t-inv F
 -0.000000  0.000000 -0.400000    0.00476190  65 t-inv F
 -0.142857 -0.000000 -0.400000    0.00476190  66 t-inv F
 -0.285714  0.000000 -0.400000    0.00476190  67 t-inv F
 -0.428571  0.000000 -0.400000    0.00476190  68 t-inv F
  0.428571  0.000000 -0.400000    0.00476190  69 t-inv F
  0.285714 -0.000000 -0.400000    0.00476190  70 t-inv F
  0.142857 -0.000000 -0.400000    0.00476190  71 t-inv F
 -0.000000 -0.166667 -0.400000    0.00476190  72 t-inv F
 -0.142857 -0.166667 -0.400000    0.00476190  73 t-inv F
 -0.285714 -0.166667 -0.400000    0.00476190  74 t-inv F
 -0.428571 -0.166667 -0.400000    0.00476190  75 t-inv F
  0.428571 -0.166667 -0.400000    0.00476190  76 t-inv F
  0.285714 -0.166667 -0.400000    0.00476190  77 t-inv F
  0.142857 -0.166667 -0.400000    0.00476190  78 t-inv F
 -0.000000 -0.333333 -0.400000    0.00476190  79 t-inv F
 -0.142857 -0.333333 -0.400000    0.00476190  80 t-inv F
 -0.285714 -0.333333 -0.400000    0.00476190  81 t-inv F
 -0.428571 -0.333333 -0.400000    0.00476190  82 t-inv F
  0.428571 -0.333333 -0.400000    0.00476190  83 t-inv F
  0.285714 -0.333333 -0.400000    0.00476190  84 t-inv F
  0.142857 -0.333333 -0.400000    0.00476190  85 t-inv F
 -0.000000 -0.500000 -0.400000    0.00476190  86 t-inv F
 -0.142857 -0.500000 -0.400000    0.00476190  87 t-inv F
 -0.285714 -0.500000 -0.400000    0.00476190  88 t-inv F
 -0.428571 -0.500000 -0.400000    0.00476190  89 t-inv F
  0.428571 -0.500000 -0.400000    0.00476190  90 t-inv F
  0.285714 -0.500000 -0.400000    0.00476190  91 t-inv F
  0.142857 -0.500000 -0.400000    0.00476190  92 t-inv F
 -0.000000  0.333333 -0.400000    0.00476190  93 t-inv F
 -0.142857  0.333333 -0.400000    0.00476190  94 t-inv F
 -0.285714  0.333333 -0.400000    0.00476190  95 t-inv F
 -0.428571  0.333333 -0.400000    0.00476190  96 t-inv F
  0.428571  0.333333 -0.400000    0.00476190  97 t-inv F
  0.285714  0.333333 -0.400000    0.00476190  98 t-inv F
  0.142857  0.333333 -0.400000    0.00476190  99 t-inv F
  0.000000  0.166667 -0.400000    0.00476190 100 t-inv F
 -0.142857  0.166667 -0.400000    0.00476190 101 t-inv F
 -0.285714  0.166667 -0.400000    0.00476190 102 t-inv F
 -0.428571  0.166667 -0.400000    0.00476190 103 t-inv F
  0.428571  0.166667 -0.400000    0.00476190 104 t-inv F
  0.285714  0.166667 -0.400000    0.00476190 105 t-inv F
  0.142857  0.166667 -0.400000    0.00476190 106 t-inv F


--------------------------------------------------------------------------------------------------------




 Dimension of arrays:
   k-points           NKPTS =    106   k-points in BZ     NKDIM =    106   number of bands    NBANDS=     48
   number of dos      NEDOS =    301   number of ions     NIONS =     12
   non local maximal  LDIM  =      4   non local SUM 2l+1 LMDIM =      8
   total plane-waves  NPLWV =  92160
   max r-space proj   IRMAX =      1   max aug-charges    IRDMAX=  20038
   dimension x,y,z NGX =    40 NGY =   48 NGZ =   48
   dimension x,y,z NGXF=    80 NGYF=   96 NGZF=   96
   support grid    NGXF=    80 NGYF=   96 NGZF=   96
   ions per type =               2   2   8
   NGX,Y,Z   is equivalent  to a cutoff of  14.13, 14.56, 13.18 a.u.
   NGXF,Y,Z  is equivalent  to a cutoff of  28.25, 29.12, 26.35 a.u.

 SYSTEM =  unknown system                          
 POSCAR =  Generated by cif2cell 1.2.10 from COD re

 Startparameter for this run:
   NWRITE =      2    write-flag & timer
   PREC   = accura    normal or accurate (medium, high low for compatibility)
   ISTART =      0    job   : 0-new  1-cont  2-samecut
   ICHARG =      2    charge: 1-file 2-atom 10-const
   ISPIN  =      1    spin polarized calculation?
   LNONCOLLINEAR =      F non collinear calculations
   LSORBIT =      F    spin-orbit coupling
   INIWAV =      1    electr: 0-lowe 1-rand  2-diag
   LASPH  =      T    aspherical Exc in radial PAW
   METAGGA=      F    non-selfconsistent MetaGGA calc.

 Electronic Relaxation 1
   ENCUT  =  600.0 eV  44.10 Ry    6.64 a.u.   9.40 10.95 12.09*2*pi/ulx,y,z
   ENINI  =  600.0     initial cutoff
   ENAUG  =  605.4 eV  augmentation charge cutoff
   NELM   =     60;   NELMIN=  4; NELMDL=  0     # of ELM steps 
   EDIFF  = 0.5E-07   stopping-criterion for ELM
   LREAL  =      F    real-space projection
   NLSPLINE    = F    spline interpolate recip. space projectors
   LCOMPAT=      F    compatible to vasp.4.4
   GGA_COMPAT  = T    GGA compatible to vasp.4.4-vasp.4.6
   LMAXPAW     = -100 max onsite density
   LMAXMIX     =    4 max onsite mixed and CHGCAR
   VOSKOWN=      0    Vosko Wilk Nusair interpolation
   ROPT   =    0.00000   0.00000   0.00000
 Ionic relaxation
   EDIFFG = 0.5E-06   stopping-criterion for IOM
   NSW    =      1    number of steps for IOM
   NBLOCK =      1;   KBLOCK =      1    inner block; outer block 
   IBRION =     -1    ionic relax: 0-MD 1-quasi-New 2-CG
   NFREE  =      0    steps in history (QN), initial steepest desc. (CG)
   ISIF   =      3    stress and relaxation
   IWAVPR =     10    prediction:  0-non 1-charg 2-wave 3-comb
   ISYM   =      2    0-nonsym 1-usesym 2-fastsym
   LCORR  =      T    Harris-Foulkes like correction to forces

   POTIM  = 0.2000    time-step for ionic-motion
   TEIN   =    0.0    initial temperature
   TEBEG  =    0.0;   TEEND  =   0.0 temperature during run
   SMASS  =  -3.00    Nose mass-parameter (am)
   estimated Nose-frequenzy (Omega)   =  0.10E-29 period in steps =****** mass=  -0.506E-27a.u.
   SCALEE = 1.0000    scale energy and forces
   NPACO  =    256;   APACO  = 16.0  distance and # of slots for P.C.
   PSTRESS=    0.0 pullay stress

  Mass of Ions in am
   POMASS =  22.99 32.07 16.00
  Ionic Valenz
   ZVAL   =   7.00  6.00  6.00
  Atomic Wigner-Seitz radii
   RWIGS  =  -1.00 -1.00 -1.00
  virtual crystal weights 
   VCA    =   1.00  1.00  1.00
   NELECT =      74.0000    total number of electrons
   NUPDOWN=      -1.0000    fix difference up-down

 DOS related values:
   EMIN   =  10.00;   EMAX   =-10.00  energy-range for DOS
   EFERMI =   0.00
   ISMEAR =    -5;   SIGMA  =   0.05  broadening in eV -4-tet -1-fermi 0-gaus

 Electronic relaxation 2 (details)
   IALGO  =     68    algorithm
   LDIAG  =      T    sub-space diagonalisation (order eigenvalues)
   LSUBROT=      F    optimize rotation matrix (better conditioning)
   TURBO    =      0    0=normal 1=particle mesh
   IRESTART =      0    0=no restart 2=restart with 2 vectors
   NREBOOT  =      0    no. of reboots
   NMIN     =      0    reboot dimension
   EREF     =   0.00    reference energy to select bands
   IMIX   =      4    mixing-type and parameters
     AMIX     =   0.40;   BMIX     =  1.00
     AMIX_MAG =   1.60;   BMIX_MAG =  1.00
     AMIN     =   0.10
     WC   =   100.;   INIMIX=   1;  MIXPRE=   1;  MAXMIX= -45

 Intra band minimization:
   WEIMIN = 0.0000     energy-eigenvalue tresh-hold
   EBREAK =  0.26E-09  absolut break condition
   DEPER  =   0.30     relativ break condition  

   TIME   =   0.40     timestep for ELM

  volume/ion in A,a.u.               =      12.19        82.29
  Fermi-wavevector in a.u.,A,eV,Ry     =   1.304271  2.464716 23.145196  1.701124
  Thomas-Fermi vector in A             =   2.435218
 
 Write flags
   LWAVE        =      F    write WAVECAR
   LDOWNSAMPLE  =      F    k-point downsampling of WAVECAR
   LCHARG       =      F    write CHGCAR
   LVTOT        =      F    write LOCPOT, total local potential
   LVHAR        =      F    write LOCPOT, Hartree potential only
   LELF         =      F    write electronic localiz. function (ELF)
   LORBIT       =      0    0 simple, 1 ext, 2 COOP (PROOUT), +10 PAW based schemes


 Dipole corrections
   LMONO  =      F    monopole corrections only (constant potential shift)
   LDIPOL =      F    correct potential (dipole corrections)
   IDIPOL =      0    1-x, 2-y, 3-z, 4-all directions 
   EPSILON=  1.0000000 bulk dielectric constant

 Exchange correlation treatment:
   GGA     =    --    GGA type
   LEXCH   =     8    internal setting for exchange type
   VOSKOWN=      0    Vosko Wilk Nusair interpolation
   LHFCALC =     F    Hartree Fock is set to
   LHFONE  =     F    Hartree Fock one center treatment
   AEXX    =    0.0000 exact exchange contribution

 Linear response parameters
   LEPSILON=     T    determine dielectric tensor
   LRPA    =     F    only Hartree local field effects (RPA)
   LNABLA  =     F    use nabla operator in PAW spheres
   LVEL    =     F    velocity operator in full k-point grid
   LINTERFAST=   F  fast interpolation
   KINTER  =     0    interpolate to denser k-point grid
   CSHIFT  =0.1000    complex shift for real part using Kramers Kronig
   OMEGAMAX=  -1.0    maximum frequency
   DEG_THRESHOLD= 0.2000000E-02 threshold for treating states as degnerate
   RTIME   =   -0.100 relaxation time in fs
  (WPLASMAI=    0.000 imaginary part of plasma frequency in eV, 0.658/RTIME)
   DFIELD  = 0.0000000 0.0000000 0.0000000 field for delta impulse in time
 
 Orbital magnetization related:
   ORBITALMAG=     F  switch on orbital magnetization
   LCHIMAG   =     F  perturbation theory with respect to B field
   DQ        =  0.001000  dq finite difference perturbation B field
   LLRAUG    =     F  two centre corrections for induced B field



--------------------------------------------------------------------------------------------------------


 Static calculation
 charge density and potential will be updated during run
 non-spin polarized calculation
 RMM-DIIS sequential band-by-band and
  variant of blocked Davidson during initial phase
 perform sub-space diagonalisation
    before iterative eigenvector-optimisation
 modified Broyden-mixing scheme, WC =      100.0
 initial mixing is a Kerker type mixing with AMIX =  0.4000 and BMIX =      1.0000
 Hartree-type preconditioning will be used
 using additional bands           11
 reciprocal scheme for non local part
 use partial core corrections
 calculate Harris-corrections to forces 
   (improved forces if not selfconsistent)
 use gradient corrections 
 use of overlap-Matrix (Vanderbilt PP)
 Fermi weights with tetrahedron method with Bloechl corrections


--------------------------------------------------------------------------------------------------------


  energy-cutoff  :      600.00
  volume of cell :      146.34
      direct lattice vectors                 reciprocal lattice vectors
     4.707048549  0.016292802 -0.015634996     0.212550358  0.026835285  0.058975083
    -0.689936955  5.437836053  0.012216473    -0.000484970  0.183733023  0.045458680
    -1.407137472 -1.418125296  5.716708644     0.000582354 -0.000319240  0.174989980

  length of vectors
     4.707102713  5.481443531  6.055730587     0.222206768  0.189273745  0.174991240


 
 k-points in units of 2pi/SCALE and weight: Generated by cif2cell 1.2.10. k-space re
   0.00000000  0.00000000  0.00000000       0.005
   0.14514153  0.01832467  0.04027156       0.010
   0.29028306  0.03664933  0.08054311       0.010
   0.43542459  0.05497400  0.12081467       0.010
  -0.00038636  0.14637397  0.03621541       0.010
   0.14475517  0.16469864  0.07648697       0.010
   0.28989670  0.18302331  0.11675853       0.010
   0.43503823  0.20134797  0.15703009       0.010
  -0.43581095  0.09139998 -0.08459926       0.010
  -0.29066942  0.10972464 -0.04432770       0.010
  -0.14552789  0.12804931 -0.00405614       0.010
  -0.00077272  0.29274795  0.07243083       0.010
   0.14436881  0.31107262  0.11270239       0.010
   0.28951034  0.32939728  0.15297394       0.010
   0.43465187  0.34772195  0.19324550       0.010
  -0.43619731  0.23777395 -0.04838384       0.010
  -0.29105578  0.25609862 -0.00811228       0.010
  -0.14591425  0.27442328  0.03215927       0.010
  -0.00115908  0.43912192  0.10864624       0.005
   0.14398245  0.45744659  0.14891780       0.010
   0.28912398  0.47577126  0.18918936       0.010
   0.43426551  0.49409592  0.22946092       0.010
   0.00055673 -0.00030519  0.16729042       0.010
   0.14569826  0.01801947  0.20756198       0.010
   0.29083979  0.03634414  0.24783353       0.010
   0.43598132  0.05466880  0.28810509       0.010
  -0.43486786 -0.05527919  0.04647575       0.010
  -0.28972633 -0.03695452  0.08674731       0.010
  -0.14458480 -0.01862986  0.12701886       0.010
   0.00017037  0.14606878  0.20350584       0.010
   0.14531190  0.16439345  0.24377739       0.010
   0.29045343  0.18271811  0.28404895       0.010
   0.43559496  0.20104278  0.32432051       0.010
  -0.43525422  0.09109478  0.08269116       0.010
  -0.29011269  0.10941945  0.12296272       0.010
  -0.14497116  0.12774412  0.16323428       0.010
  -0.00021599  0.29244276  0.23972125       0.010
   0.14492554  0.31076742  0.27999281       0.010
   0.29006707  0.32909209  0.32026436       0.010
   0.43520860  0.34741675  0.36053592       0.010
  -0.43564058  0.23746876  0.11890658       0.010
  -0.29049905  0.25579342  0.15917814       0.010
  -0.14535752  0.27411809  0.19944969       0.010
  -0.00060235  0.43881673  0.27593667       0.010
   0.14453918  0.45714140  0.31620822       0.010
   0.28968071  0.47546606  0.35647978       0.010
   0.43482224  0.49379073  0.39675134       0.010
  -0.43602694  0.38384273  0.15512199       0.010
  -0.29088541  0.40216740  0.19539355       0.010
  -0.14574388  0.42049207  0.23566511       0.010
   0.00132945 -0.29305314  0.09485959       0.010
   0.14647098 -0.27472848  0.13513115       0.010
   0.29161251 -0.25640381  0.17540270       0.010
   0.43675404 -0.23807915  0.21567426       0.010
  -0.43409514 -0.34802714 -0.02595508       0.010
  -0.28895361 -0.32970247  0.01431648       0.010
  -0.14381208 -0.31137781  0.05458803       0.010
   0.00094309 -0.14667917  0.13107501       0.010
   0.14608462 -0.12835450  0.17134656       0.010
   0.29122615 -0.11002984  0.21161812       0.010
   0.43636768 -0.09170517  0.25188968       0.010
  -0.43448150 -0.20165317  0.01026033       0.010
  -0.28933997 -0.18332850  0.05053189       0.010
  -0.14419844 -0.16500383  0.09080345       0.010
   0.00111346 -0.00061039  0.33458084       0.010
   0.14625499  0.01771428  0.37485240       0.010
   0.29139652  0.03603895  0.41512396       0.010
   0.43653805  0.05436361  0.45539551       0.010
  -0.43431113 -0.05558438  0.21376617       0.010
  -0.28916960 -0.03725972  0.25403773       0.010
  -0.14402807 -0.01893505  0.29430928       0.010
   0.00072710  0.14576359  0.37079626       0.010
   0.14586863  0.16408825  0.41106781       0.010
   0.29101016  0.18241292  0.45133937       0.010
   0.43615169  0.20073759  0.49161093       0.010
  -0.43469749  0.09078959  0.24998159       0.010
  -0.28955596  0.10911426  0.29025314       0.010
  -0.14441443  0.12743892  0.33052470       0.010
   0.00034074  0.29213756  0.40701167       0.010
   0.14548227  0.31046223  0.44728323       0.010
   0.29062380  0.32878690  0.48755479       0.010
   0.43576533  0.34711156  0.52782634       0.010
  -0.43508385  0.23716357  0.28619700       0.010
  -0.28994232  0.25548823  0.32646856       0.010
  -0.14480079  0.27381290  0.36674011       0.010
  -0.00004562  0.43851154  0.44322709       0.010
   0.14509591  0.45683620  0.48349864       0.010
   0.29023744  0.47516087  0.52377020       0.010
   0.43537897  0.49348554  0.56404176       0.010
  -0.43547021  0.38353754  0.32241242       0.010
  -0.29032868  0.40186221  0.36268397       0.010
  -0.14518715  0.42018687  0.40295553       0.010
   0.00188618 -0.29335834  0.26215001       0.010
   0.14702771 -0.27503367  0.30242157       0.010
   0.29216924 -0.25670900  0.34269313       0.010
   0.43731077 -0.23838434  0.38296468       0.010
  -0.43353841 -0.34833233  0.14133534       0.010
  -0.28839688 -0.33000767  0.18160690       0.010
  -0.14325535 -0.31168300  0.22187845       0.010
   0.00149982 -0.14698436  0.29836543       0.010
   0.14664135 -0.12865970  0.33863698       0.010
   0.29178288 -0.11033503  0.37890854       0.010
   0.43692441 -0.09201036  0.41918010       0.010
  -0.43392477 -0.20195836  0.17755076       0.010
  -0.28878324 -0.18363369  0.21782231       0.010
  -0.14364171 -0.16530903  0.25809387       0.010
 
 k-points in reciprocal lattice and weights: Generated by cif2cell 1.2.10. k-space re
   0.00000000  0.00000000  0.00000000       0.005
   0.14285714 -0.00000000 -0.00000000       0.010
   0.28571429 -0.00000000 -0.00000000       0.010
   0.42857143 -0.00000000  0.00000000       0.010
   0.00000000  0.16666667 -0.00000000       0.010
   0.14285714  0.16666667 -0.00000000       0.010
   0.28571429  0.16666667  0.00000000       0.010
   0.42857143  0.16666667 -0.00000000       0.010
  -0.42857143  0.16666667 -0.00000000       0.010
  -0.28571429  0.16666667  0.00000000       0.010
  -0.14285714  0.16666667  0.00000000       0.010
  -0.00000000  0.33333333  0.00000000       0.010
   0.14285714  0.33333333  0.00000000       0.010
   0.28571429  0.33333333 -0.00000000       0.010
   0.42857143  0.33333333 -0.00000000       0.010
  -0.42857143  0.33333333  0.00000000       0.010
  -0.28571429  0.33333333  0.00000000       0.010
  -0.14285714  0.33333333  0.00000000       0.010
   0.00000000  0.50000000  0.00000000       0.005
   0.14285714  0.50000000  0.00000000       0.010
   0.28571429  0.50000000  0.00000000       0.010
   0.42857143  0.50000000  0.00000000       0.010
   0.00000000 -0.00000000  0.20000000       0.010
   0.14285714  0.00000000  0.20000000       0.010
   0.28571429 -0.00000000  0.20000000       0.010
   0.42857143 -0.00000000  0.20000000       0.010
  -0.42857143  0.00000000  0.20000000       0.010
  -0.28571429 -0.00000000  0.20000000       0.010
  -0.14285714  0.00000000  0.20000000       0.010
   0.00000000  0.16666667  0.20000000       0.010
   0.14285714  0.16666667  0.20000000       0.010
   0.28571429  0.16666667  0.20000000       0.010
   0.42857143  0.16666667  0.20000000       0.010
  -0.42857143  0.16666667  0.20000000       0.010
  -0.28571429  0.16666667  0.20000000       0.010
  -0.14285714  0.16666667  0.20000000       0.010
   0.00000000  0.33333333  0.20000000       0.010
   0.14285714  0.33333333  0.20000000       0.010
   0.28571429  0.33333333  0.20000000       0.010
   0.42857143  0.33333333  0.20000000       0.010
  -0.42857143  0.33333333  0.20000000       0.010
  -0.28571429  0.33333333  0.20000000       0.010
  -0.14285714  0.33333333  0.20000000       0.010
   0.00000000  0.50000000  0.20000000       0.010
   0.14285714  0.50000000  0.20000000       0.010
   0.28571429  0.50000000  0.20000000       0.010
   0.42857143  0.50000000  0.20000000       0.010
  -0.42857143  0.50000000  0.20000000       0.010
  -0.28571429  0.50000000  0.20000000       0.010
  -0.14285714  0.50000000  0.20000000       0.010
   0.00000000 -0.33333333  0.20000000       0.010
   0.14285714 -0.33333333  0.20000000       0.010
   0.28571429 -0.33333333  0.20000000       0.010
   0.42857143 -0.33333333  0.20000000       0.010
  -0.42857143 -0.33333333  0.20000000       0.010
  -0.28571429 -0.33333333  0.20000000       0.010
  -0.14285714 -0.33333333  0.20000000       0.010
   0.00000000 -0.16666667  0.20000000       0.010
   0.14285714 -0.16666667  0.20000000       0.010
   0.28571429 -0.16666667  0.20000000       0.010
   0.42857143 -0.16666667  0.20000000       0.010
  -0.42857143 -0.16666667  0.20000000       0.010
  -0.28571429 -0.16666667  0.20000000       0.010
  -0.14285714 -0.16666667  0.20000000       0.010
   0.00000000 -0.00000000  0.40000000       0.010
   0.14285714  0.00000000  0.40000000       0.010
   0.28571429 -0.00000000  0.40000000       0.010
   0.42857143 -0.00000000  0.40000000       0.010
  -0.42857143 -0.00000000  0.40000000       0.010
  -0.28571429  0.00000000  0.40000000       0.010
  -0.14285714  0.00000000  0.40000000       0.010
   0.00000000  0.16666667  0.40000000       0.010
   0.14285714  0.16666667  0.40000000       0.010
   0.28571429  0.16666667  0.40000000       0.010
   0.42857143  0.16666667  0.40000000       0.010
  -0.42857143  0.16666667  0.40000000       0.010
  -0.28571429  0.16666667  0.40000000       0.010
  -0.14285714  0.16666667  0.40000000       0.010
   0.00000000  0.33333333  0.40000000       0.010
   0.14285714  0.33333333  0.40000000       0.010
   0.28571429  0.33333333  0.40000000       0.010
   0.42857143  0.33333333  0.40000000       0.010
  -0.42857143  0.33333333  0.40000000       0.010
  -0.28571429  0.33333333  0.40000000       0.010
  -0.14285714  0.33333333  0.40000000       0.010
   0.00000000  0.50000000  0.40000000       0.010
   0.14285714  0.50000000  0.40000000       0.010
   0.28571429  0.50000000  0.40000000       0.010
   0.42857143  0.50000000  0.40000000       0.010
  -0.42857143  0.50000000  0.40000000       0.010
  -0.28571429  0.50000000  0.40000000       0.010
  -0.14285714  0.50000000  0.40000000       0.010
   0.00000000 -0.33333333  0.40000000       0.010
   0.14285714 -0.33333333  0.40000000       0.010
   0.28571429 -0.33333333  0.40000000       0.010
   0.42857143 -0.33333333  0.40000000       0.010
  -0.42857143 -0.33333333  0.40000000       0.010
  -0.28571429 -0.33333333  0.40000000       0.010
  -0.14285714 -0.33333333  0.40000000       0.010
   0.00000000 -0.16666667  0.40000000       0.010
   0.14285714 -0.16666667  0.40000000       0.010
   0.28571429 -0.16666667  0.40000000       0.010
   0.42857143 -0.16666667  0.40000000       0.010
  -0.42857143 -0.16666667  0.40000000       0.010
  -0.28571429 -0.16666667  0.40000000       0.010
  -0.14285714 -0.16666667  0.40000000       0.010
 
 position of ions in fractional coordinates (direct lattice) 
   0.04137990  0.31330337  0.21203720
   0.95862010  0.68669663  0.78796280
   0.61152980  0.77684384  0.24278990
   0.38847020  0.22315616  0.75721010
   0.58093506  0.04044492  0.41658179
   0.41906494  0.95955508  0.58341821
   0.77481485  0.89777391  0.10646541
   0.22518515  0.10222609  0.89353459
   0.31057741  0.64788650  0.11961946
   0.68942259  0.35211350  0.88038054
   0.77429830  0.63352911  0.39075396
   0.22570170  0.36647089  0.60924604
 
 position of ions in cartesian coordinates  (Angst):
  -0.31974785  1.40367123  1.21533541
   2.92972198  2.63233233  4.49795471
   2.00088845  3.89000646  1.38788813
   0.60908568  0.14599710  4.32540199
   2.12039726 -0.36136729  2.37288792
   0.48957687  4.39737085  3.34040220
   2.87787227  4.74358995  0.60748511
  -0.26789815 -0.70758639  5.10580501
   0.84658107  3.35852538  0.68688860
   1.76339305  0.67747818  5.02640152
   2.65771998  2.90350486  2.22945991
  -0.04774585  1.13249870  3.48383021
 


--------------------------------------------------------------------------------------------------------


 k-point  1 :   0.0000 0.0000 0.0000  plane waves:    4881
 k-point  2 :   0.1429-0.0000-0.0000  plane waves:    4887
 k-point  3 :   0.2857-0.0000-0.0000  plane waves:    4879
 k-point  4 :   0.4286-0.0000 0.0000  plane waves:    4865
 k-point  5 :   0.0000 0.1667-0.0000  plane waves:    4898
 k-point  6 :   0.1429 0.1667-0.0000  plane waves:    4893
 k-point  7 :   0.2857 0.1667 0.0000  plane waves:    4888
 k-point  8 :   0.4286 0.1667-0.0000  plane waves:    4863
 k-point  9 :  -0.4286 0.1667-0.0000  plane waves:    4865
 k-point 10 :  -0.2857 0.1667 0.0000  plane waves:    4877
 k-point 11 :  -0.1429 0.1667 0.0000  plane waves:    4886
 k-point 12 :  -0.0000 0.3333 0.0000  plane waves:    4884
 k-point 13 :   0.1429 0.3333 0.0000  plane waves:    4886
 k-point 14 :   0.2857 0.3333-0.0000  plane waves:    4885
 k-point 15 :   0.4286 0.3333-0.0000  plane waves:    4885
 k-point 16 :  -0.4286 0.3333 0.0000  plane waves:    4875
 k-point 17 :  -0.2857 0.3333 0.0000  plane waves:    4877
 k-point 18 :  -0.1429 0.3333 0.0000  plane waves:    4886
 k-point 19 :   0.0000 0.5000 0.0000  plane waves:    4872
 k-point 20 :   0.1429 0.5000 0.0000  plane waves:    4874
 k-point 21 :   0.2857 0.5000 0.0000  plane waves:    4878
 k-point 22 :   0.4286 0.5000 0.0000  plane waves:    4874
 k-point 23 :   0.0000-0.0000 0.2000  plane waves:    4877
 k-point 24 :   0.1429 0.0000 0.2000  plane waves:    4877
 k-point 25 :   0.2857-0.0000 0.2000  plane waves:    4863
 k-point 26 :   0.4286-0.0000 0.2000  plane waves:    4863
 k-point 27 :  -0.4286 0.0000 0.2000  plane waves:    4866
 k-point 28 :  -0.2857-0.0000 0.2000  plane waves:    4881
 k-point 29 :  -0.1429 0.0000 0.2000  plane waves:    4890
 k-point 30 :   0.0000 0.1667 0.2000  plane waves:    4889
 k-point 31 :   0.1429 0.1667 0.2000  plane waves:    4881
 k-point 32 :   0.2857 0.1667 0.2000  plane waves:    4862
 k-point 33 :   0.4286 0.1667 0.2000  plane waves:    4869
 k-point 34 :  -0.4286 0.1667 0.2000  plane waves:    4875
 k-point 35 :  -0.2857 0.1667 0.2000  plane waves:    4877
 k-point 36 :  -0.1429 0.1667 0.2000  plane waves:    4889
 k-point 37 :   0.0000 0.3333 0.2000  plane waves:    4880
 k-point 38 :   0.1429 0.3333 0.2000  plane waves:    4881
 k-point 39 :   0.2857 0.3333 0.2000  plane waves:    4873
 k-point 40 :   0.4286 0.3333 0.2000  plane waves:    4872
 k-point 41 :  -0.4286 0.3333 0.2000  plane waves:    4881
 k-point 42 :  -0.2857 0.3333 0.2000  plane waves:    4890
 k-point 43 :  -0.1429 0.3333 0.2000  plane waves:    4894
 k-point 44 :   0.0000 0.5000 0.2000  plane waves:    4896
 k-point 45 :   0.1429 0.5000 0.2000  plane waves:    4886
 k-point 46 :   0.2857 0.5000 0.2000  plane waves:    4876
 k-point 47 :   0.4286 0.5000 0.2000  plane waves:    4873
 k-point 48 :  -0.4286 0.5000 0.2000  plane waves:    4892
 k-point 49 :  -0.2857 0.5000 0.2000  plane waves:    4894
 k-point 50 :  -0.1429 0.5000 0.2000  plane waves:    4894
 k-point 51 :   0.0000-0.3333 0.2000  plane waves:    4902
 k-point 52 :   0.1429-0.3333 0.2000  plane waves:    4902
 k-point 53 :   0.2857-0.3333 0.2000  plane waves:    4881
 k-point 54 :   0.4286-0.3333 0.2000  plane waves:    4872
 k-point 55 :  -0.4286-0.3333 0.2000  plane waves:    4895
 k-point 56 :  -0.2857-0.3333 0.2000  plane waves:    4906
 k-point 57 :  -0.1429-0.3333 0.2000  plane waves:    4885
 k-point 58 :   0.0000-0.1667 0.2000  plane waves:    4894
 k-point 59 :   0.1429-0.1667 0.2000  plane waves:    4888
 k-point 60 :   0.2857-0.1667 0.2000  plane waves:    4873
 k-point 61 :   0.4286-0.1667 0.2000  plane waves:    4870
 k-point 62 :  -0.4286-0.1667 0.2000  plane waves:    4880
 k-point 63 :  -0.2857-0.1667 0.2000  plane waves:    4891
 k-point 64 :  -0.1429-0.1667 0.2000  plane waves:    4892
 k-point 65 :   0.0000-0.0000 0.4000  plane waves:    4896
 k-point 66 :   0.1429 0.0000 0.4000  plane waves:    4870
 k-point 67 :   0.2857-0.0000 0.4000  plane waves:    4876
 k-point 68 :   0.4286-0.0000 0.4000  plane waves:    4878
 k-point 69 :  -0.4286-0.0000 0.4000  plane waves:    4872
 k-point 70 :  -0.2857 0.0000 0.4000  plane waves:    4872
 k-point 71 :  -0.1429 0.0000 0.4000  plane waves:    4884
 k-point 72 :   0.0000 0.1667 0.4000  plane waves:    4893
 k-point 73 :   0.1429 0.1667 0.4000  plane waves:    4875
 k-point 74 :   0.2857 0.1667 0.4000  plane waves:    4869
 k-point 75 :   0.4286 0.1667 0.4000  plane waves:    4864
 k-point 76 :  -0.4286 0.1667 0.4000  plane waves:    4872
 k-point 77 :  -0.2857 0.1667 0.4000  plane waves:    4894
 k-point 78 :  -0.1429 0.1667 0.4000  plane waves:    4890
 k-point 79 :   0.0000 0.3333 0.4000  plane waves:    4892
 k-point 80 :   0.1429 0.3333 0.4000  plane waves:    4885
 k-point 81 :   0.2857 0.3333 0.4000  plane waves:    4878
 k-point 82 :   0.4286 0.3333 0.4000  plane waves:    4879
 k-point 83 :  -0.4286 0.3333 0.4000  plane waves:    4885
 k-point 84 :  -0.2857 0.3333 0.4000  plane waves:    4907
 k-point 85 :  -0.1429 0.3333 0.4000  plane waves:    4899
 k-point 86 :   0.0000 0.5000 0.4000  plane waves:    4888
 k-point 87 :   0.1429 0.5000 0.4000  plane waves:    4886
 k-point 88 :   0.2857 0.5000 0.4000  plane waves:    4893
 k-point 89 :   0.4286 0.5000 0.4000  plane waves:    4889
 k-point 90 :  -0.4286 0.5000 0.4000  plane waves:    4902
 k-point 91 :  -0.2857 0.5000 0.4000  plane waves:    4906
 k-point 92 :  -0.1429 0.5000 0.4000  plane waves:    4895
 k-point 93 :   0.0000-0.3333 0.4000  plane waves:    4892
 k-point 94 :   0.1429-0.3333 0.4000  plane waves:    4902
 k-point 95 :   0.2857-0.3333 0.4000  plane waves:    4886
 k-point 96 :   0.4286-0.3333 0.4000  plane waves:    4884
 k-point 97 :  -0.4286-0.3333 0.4000  plane waves:    4894
 k-point 98 :  -0.2857-0.3333 0.4000  plane waves:    4888
 k-point 99 :  -0.1429-0.3333 0.4000  plane waves:    4885
 k-point ** :   0.0000-0.1667 0.4000  plane waves:    4902
 k-point ** :   0.1429-0.1667 0.4000  plane waves:    4905
 k-point ** :   0.2857-0.1667 0.4000  plane waves:    4887
 k-point ** :   0.4286-0.1667 0.4000  plane waves:    4888
 k-point ** :  -0.4286-0.1667 0.4000  plane waves:    4879
 k-point ** :  -0.2857-0.1667 0.4000  plane waves:    4883
 k-point ** :  -0.1429-0.1667 0.4000  plane waves:    4882

 maximum and minimum number of plane-waves per node :      4907     4862

 maximum number of plane-waves:      4907
 maximum index in each direction: 
   IXMAX=    9   IYMAX=   11   IZMAX=   12
   IXMIN=   -9   IYMIN=  -11   IZMIN=  -12


 serial   3D FFT for wavefunctions
 parallel 3D FFT for charge:
    minimum data exchange during FFTs selected (reduces bandwidth)


 total amount of memory used by VASP MPI-rank0   155835. kBytes
=======================================================================

   base      :      30000. kBytes
   nonl-proj :     101076. kBytes
   fftplans  :       1596. kBytes
   grid      :       6113. kBytes
   one-center:         36. kBytes
   wavefun   :      17014. kBytes
 
     INWAV:  cpu time    0.0000: real time    0.0001
 Broyden mixing: mesh for mixing (old mesh)
   NGX = 19   NGY = 21   NGZ = 25
  (NGX  = 80   NGY  = 96   NGZ  = 96)
  gives a total of   9975 points

 initial charge density was supplied:
 charge density of overlapping atoms calculated
 number of electron      74.0000000 magnetization 
 keeping initial charge density in first step


--------------------------------------------------------------------------------------------------------


 Maximum index for augmentation-charges         1425 (set IRDMAX)


--------------------------------------------------------------------------------------------------------


 First call to EWALD:  gamma=   0.336
 Maximum number of real-space cells 3x 3x 3
 Maximum number of reciprocal cells 3x 3x 3

    FEWALD:  cpu time    0.0017: real time    0.0017


--------------------------------------- Iteration      1(   1)  ---------------------------------------


    POTLOK:  cpu time    0.0518: real time    0.0530
    SETDIJ:  cpu time    0.0704: real time    0.0704
     EDDAV:  cpu time   15.4803: real time   15.6689
 BZINTS: Fermi energy: 18.517832; 74.000000 electrons
         Band energy: -40.133129;  BLOECHL correction: -0.112411
       DOS:  cpu time    0.0507: real time    0.0507
    --------------------------------------------
      LOOP:  cpu time   15.6532: real time   15.8430

 eigenvalue-minimisations  : 10176
 total energy-change (2. order) : 0.6620192E+03  (-0.4553317E+04)
 number of electron      74.0000000 magnetization 
 augmentation part       74.0000000 magnetization 

 Free energy of the ion-electron system (eV)
  ---------------------------------------------------
  alpha Z        PSCENC =       163.18546138
  Ewald energy   TEWEN  =     -3463.14432758
  -Hartree energ DENC   =     -1657.54425565
  -exchange      EXHF   =         0.00000000
  -V(xc)+E(xc)   XCENC  =       300.18538770
  PAW double counting   =      4212.05979638    -4397.21421078
  entropy T*S    EENTRO =         0.00000000
  eigenvalues    EBANDS =       -40.13312911
  atomic energy  EATOM  =      5544.62445944
  Solvation  Ediel_sol  =         0.00000000
  ---------------------------------------------------
  free energy    TOTEN  =       662.01918177 eV

  energy without entropy =      662.01918177  energy(sigma->0) =      662.01918177


--------------------------------------------------------------------------------------------------------




--------------------------------------- Iteration      1(   2)  ---------------------------------------


     EDDAV:  cpu time   18.4578: real time   18.4790
 BZINTS: Fermi energy:  0.881963; 74.000000 electrons
         Band energy:-743.522612;  BLOECHL correction:  0.000000
       DOS:  cpu time    0.0121: real time    0.0121
    --------------------------------------------
      LOOP:  cpu time   18.4699: real time   18.4911

 eigenvalue-minimisations  : 12720
 total energy-change (2. order) :-0.7033895E+03  (-0.6967691E+03)
 number of electron      74.0000000 magnetization 
 augmentation part       74.0000000 magnetization 

 Free energy of the ion-electron system (eV)
  ---------------------------------------------------
  alpha Z        PSCENC =       163.18546138
  Ewald energy   TEWEN  =     -3463.14432758
  -Hartree energ DENC   =     -1657.54425565
  -exchange      EXHF   =         0.00000000
  -V(xc)+E(xc)   XCENC  =       300.18538770
  PAW double counting   =      4212.05979638    -4397.21421078
  entropy T*S    EENTRO =         0.00000000
  eigenvalues    EBANDS =      -743.52261217
  atomic energy  EATOM  =      5544.62445944
  Solvation  Ediel_sol  =         0.00000000
  ---------------------------------------------------
  free energy    TOTEN  =       -41.37030129 eV

  energy without entropy =      -41.37030129  energy(sigma->0) =      -41.37030129


--------------------------------------------------------------------------------------------------------




--------------------------------------- Iteration      1(   3)  ---------------------------------------


     EDDAV:  cpu time   21.0175: real time   21.0369
 BZINTS: Fermi energy: -0.159455; 74.000000 electrons
         Band energy:-779.308763;  BLOECHL correction:  0.000000
       DOS:  cpu time    0.0262: real time    0.0262
    --------------------------------------------
      LOOP:  cpu time   21.0437: real time   21.0631

 eigenvalue-minimisations  : 14856
 total energy-change (2. order) :-0.3578615E+02  (-0.3570524E+02)
 number of electron      74.0000000 magnetization 
 augmentation part       74.0000000 magnetization 

 Free energy of the ion-electron system (eV)
  ---------------------------------------------------
  alpha Z        PSCENC =       163.18546138
  Ewald energy   TEWEN  =     -3463.14432758
  -Hartree energ DENC   =     -1657.54425565
  -exchange      EXHF   =         0.00000000
  -V(xc)+E(xc)   XCENC  =       300.18538770
  PAW double counting   =      4212.05979638    -4397.21421078
  entropy T*S    EENTRO =         0.00000000
  eigenvalues    EBANDS =      -779.30876301
  atomic energy  EATOM  =      5544.62445944
  Solvation  Ediel_sol  =         0.00000000
  ---------------------------------------------------
  free energy    TOTEN  =       -77.15645213 eV

  energy without entropy =      -77.15645213  energy(sigma->0) =      -77.15645213


--------------------------------------------------------------------------------------------------------




--------------------------------------- Iteration      1(   4)  ---------------------------------------


     EDDAV:  cpu time   17.2753: real time   17.4555
 BZINTS: Fermi energy: -0.114107; 74.000000 electrons
         Band energy:-779.738833;  BLOECHL correction:  0.000000
       DOS:  cpu time    0.0087: real time    0.0087
    --------------------------------------------
      LOOP:  cpu time   17.2840: real time   17.4642

 eigenvalue-minimisations  : 11952
 total energy-change (2. order) :-0.4300699E+00  (-0.4299391E+00)
 number of electron      74.0000000 magnetization 
 augmentation part       74.0000000 magnetization 

 Free energy of the ion-electron system (eV)
  ---------------------------------------------------
  alpha Z        PSCENC =       163.18546138
  Ewald energy   TEWEN  =     -3463.14432758
  -Hartree energ DENC   =     -1657.54425565
  -exchange      EXHF   =         0.00000000
  -V(xc)+E(xc)   XCENC  =       300.18538770
  PAW double counting   =      4212.05979638    -4397.21421078
  entropy T*S    EENTRO =         0.00000000
  eigenvalues    EBANDS =      -779.73883293
  atomic energy  EATOM  =      5544.62445944
  Solvation  Ediel_sol  =         0.00000000
  ---------------------------------------------------
  free energy    TOTEN  =       -77.58652204 eV

  energy without entropy =      -77.58652204  energy(sigma->0) =      -77.58652204


--------------------------------------------------------------------------------------------------------




--------------------------------------- Iteration      1(   5)  ---------------------------------------


     EDDAV:  cpu time   21.0016: real time   21.1679
 BZINTS: Fermi energy: -0.179900; 74.000000 electrons
         Band energy:-779.747796;  BLOECHL correction:  0.000000
       DOS:  cpu time    0.0073: real time    0.0073
    CHARGE:  cpu time    0.3291: real time    0.3291
    MIXING:  cpu time    0.0017: real time    0.0017
    --------------------------------------------
      LOOP:  cpu time   21.3397: real time   21.5060

 eigenvalue-minimisations  : 14880
 total energy-change (2. order) :-0.8963031E-02  (-0.8959410E-02)
 number of electron      73.9999993 magnetization 
 augmentation part       13.6281547 magnetization 

 Broyden mixing:
  rms(total) = 0.61327E+01    rms(broyden)= 0.61326E+01
  rms(prec ) = 0.68087E+01
  weight for this iteration     100.00

 Free energy of the ion-electron system (eV)
  ---------------------------------------------------
  alpha Z        PSCENC =       163.18546138
  Ewald energy   TEWEN  =     -3463.14432758
  -Hartree energ DENC   =     -1657.54425565
  -exchange      EXHF   =         0.00000000
  -V(xc)+E(xc)   XCENC  =       300.18538770
  PAW double counting   =      4212.05979638    -4397.21421078
  entropy T*S    EENTRO =         0.00000000
  eigenvalues    EBANDS =      -779.74779596
  atomic energy  EATOM  =      5544.62445944
  Solvation  Ediel_sol  =         0.00000000
  ---------------------------------------------------
  free energy    TOTEN  =       -77.59548507 eV

  energy without entropy =      -77.59548507  energy(sigma->0) =      -77.59548507


--------------------------------------------------------------------------------------------------------




--------------------------------------- Iteration      1(   6)  ---------------------------------------


    POTLOK:  cpu time    0.0383: real time    0.0516
    SETDIJ:  cpu time    0.0605: real time    0.0794
    EDDIAG:  cpu time    3.9856: real time    3.9907
  RMM-DIIS:  cpu time    3.9636: real time    4.0051
    ORTHCH:  cpu time    0.4321: real time    0.4323
 BZINTS: Fermi energy:  0.325883; 74.000000 electrons
         Band energy:-699.424809;  BLOECHL correction:  0.000000
       DOS:  cpu time    0.0072: real time    0.0072
    CHARGE:  cpu time    0.3161: real time    0.3161
    MIXING:  cpu time    0.0015: real time    0.0015
    --------------------------------------------
      LOOP:  cpu time    8.8048: real time    8.8840

 eigenvalue-minimisations  : 11375
 total energy-change (2. order) : 0.9113685E+01  (-0.4442881E+01)
 number of electron      73.9999995 magnetization 
 augmentation part       12.5914198 magnetization 

 Broyden mixing:
  rms(total) = 0.29277E+01    rms(broyden)= 0.29276E+01
  rms(prec ) = 0.29851E+01
  weight for this iteration     100.00

 eigenvalues of (default mixing * dielectric matrix)
  average eigenvalue GAMMA=   1.6787
  1.6787

 Free energy of the ion-electron system (eV)
  ---------------------------------------------------
  alpha Z        PSCENC =       163.18546138
  Ewald energy   TEWEN  =     -3463.14432758
  -Hartree energ DENC   =     -1733.69348304
  -exchange      EXHF   =         0.00000000
  -V(xc)+E(xc)   XCENC  =       306.60910081
  PAW double counting   =      6782.73496036    -6969.37316221
  entropy T*S    EENTRO =         0.00000000
  eigenvalues    EBANDS =      -699.42480885
  atomic energy  EATOM  =      5544.62445944
  Solvation  Ediel_sol  =         0.00000000
  ---------------------------------------------------
  free energy    TOTEN  =       -68.48179969 eV

  energy without entropy =      -68.48179969  energy(sigma->0) =      -68.48179969


--------------------------------------------------------------------------------------------------------




--------------------------------------- Iteration      1(   7)  ---------------------------------------


    POTLOK:  cpu time    0.0735: real time    0.0735
    SETDIJ:  cpu time    0.0638: real time    0.0638
    EDDIAG:  cpu time    3.9568: real time    3.9943
  RMM-DIIS:  cpu time    5.1785: real time    5.2189
    ORTHCH:  cpu time    0.4298: real time    0.4300
 BZINTS: Fermi energy:  0.687537; 74.000000 electrons
         Band energy:-690.891606;  BLOECHL correction:  0.000000
       DOS:  cpu time    0.0076: real time    0.0076
    CHARGE:  cpu time    0.3363: real time    0.3364
    MIXING:  cpu time    0.0010: real time    0.0010
    --------------------------------------------
      LOOP:  cpu time   10.0473: real time   10.1256

 eigenvalue-minimisations  : 14772
 total energy-change (2. order) : 0.1005804E+01  (-0.2053894E+00)
 number of electron      73.9999994 magnetization 
 augmentation part       12.4901814 magnetization 

 Broyden mixing:
  rms(total) = 0.11656E+01    rms(broyden)= 0.11656E+01
  rms(prec ) = 0.11946E+01
  weight for this iteration     100.00

 eigenvalues of (default mixing * dielectric matrix)
  average eigenvalue GAMMA=   1.6860
  1.0213  2.3507

 Free energy of the ion-electron system (eV)
  ---------------------------------------------------
  alpha Z        PSCENC =       163.18546138
  Ewald energy   TEWEN  =     -3463.14432758
  -Hartree energ DENC   =     -1741.73230607
  -exchange      EXHF   =         0.00000000
  -V(xc)+E(xc)   XCENC  =       307.46138191
  PAW double counting   =      9578.42347144    -9765.40253011
  entropy T*S    EENTRO =         0.00000000
  eigenvalues    EBANDS =      -690.89160647
  atomic energy  EATOM  =      5544.62445944
  Solvation  Ediel_sol  =         0.00000000
  ---------------------------------------------------
  free energy    TOTEN  =       -67.47599606 eV

  energy without entropy =      -67.47599606  energy(sigma->0) =      -67.47599606


--------------------------------------------------------------------------------------------------------




--------------------------------------- Iteration      1(   8)  ---------------------------------------


    POTLOK:  cpu time    0.0418: real time    0.0418
    SETDIJ:  cpu time    0.0645: real time    0.0645
    EDDIAG:  cpu time    3.8523: real time    3.9219
  RMM-DIIS:  cpu time    4.7444: real time    4.7841
    ORTHCH:  cpu time    0.4361: real time    0.4362
 BZINTS: Fermi energy:  0.629514; 74.000000 electrons
         Band energy:-689.292216;  BLOECHL correction:  0.000000
       DOS:  cpu time    0.0073: real time    0.0073
    CHARGE:  cpu time    0.3344: real time    0.3345
    MIXING:  cpu time    0.0009: real time    0.0009
    --------------------------------------------
      LOOP:  cpu time    9.4816: real time    9.5913

 eigenvalue-minimisations  : 12772
 total energy-change (2. order) : 0.2859299E-01  (-0.2196571E-01)
[...]
      LOOP:  cpu time    8.3941: real time    8.3949

 Broyden mixing:
  rms(total) = 0.29172E-03    rms(broyden)= 0.29154E-03
  rms(prec ) = 0.48996E-03
  weight for this iteration     100.00

 eigenvalues of (default mixing * dielectric matrix)
  average eigenvalue GAMMA=   1.4592
  2.6951  2.3734  1.5330  0.7188  1.0075  1.0075  0.8793

 Free energy of the ion-electron system (eV)
  ---------------------------------------------------
  -Hartree energ DENC   =        -0.12824437
  -V(xc)+E(xc)   XCENC  =         0.00303222
  PAW double counting   =         0.38059429       -0.38250134
  entropy T*S    EENTRO =         0.00000000
  eigenvalues    EBANDS =        -0.59336034
  ---------------------------------------------------
  free energy    TOTEN  =        -0.72047954 eV

  energy without entropy =       -0.72047954


----------------------------------------- Iteration    3(  10)  ---------------------------------------


   POT+DIJ:  cpu time    0.2241: real time    0.2241
    HAMIL1:  cpu time    1.0953: real time    1.0954
    LRDIAG:  cpu time    1.0936: real time    1.0937
    LRDIIS:  cpu time    5.1088: real time    5.1101
    LRDIAG:  cpu time    1.0627: real time    1.0628
    MIXING:  cpu time    0.0011: real time    0.0011
    --------------------------------------------
      LOOP:  cpu time    9.1760: real time    9.1778

 Broyden mixing:
  rms(total) = 0.11719E-03    rms(broyden)= 0.11718E-03
  rms(prec ) = 0.19509E-03
  weight for this iteration     100.00

 eigenvalues of (default mixing * dielectric matrix)
  average eigenvalue GAMMA=   1.5605
  2.8768  2.2435  2.2435  1.5662  0.9891  0.9891  0.7190  0.8571

 Free energy of the ion-electron system (eV)
  ---------------------------------------------------
  -Hartree energ DENC   =        -0.12831590
  -V(xc)+E(xc)   XCENC  =         0.00303323
  PAW double counting   =         0.38051059       -0.38241923
  entropy T*S    EENTRO =         0.00000000
  eigenvalues    EBANDS =        -0.59331043
  ---------------------------------------------------
  free energy    TOTEN  =        -0.72050174 eV

  energy without entropy =       -0.72050174


----------------------------------------- Iteration    3(  11)  ---------------------------------------


   POT+DIJ:  cpu time    0.2188: real time    0.2188
    HAMIL1:  cpu time    1.1184: real time    1.1185
    LRDIAG:  cpu time    0.7936: real time    0.7937
    LRDIIS:  cpu time    4.6191: real time    4.6197
    LRDIAG:  cpu time    1.1081: real time    1.1082
    MIXING:  cpu time    0.0012: real time    0.0012
    --------------------------------------------
      LOOP:  cpu time    8.4400: real time    8.4408

 Broyden mixing:
  rms(total) = 0.45164E-04    rms(broyden)= 0.45158E-04
  rms(prec ) = 0.76094E-04
  weight for this iteration     100.00

 eigenvalues of (default mixing * dielectric matrix)
  average eigenvalue GAMMA=   1.5284
  2.9617  2.3539  1.9487  1.4437  1.4437  0.7187  0.8982  0.9936  0.9936

 Free energy of the ion-electron system (eV)
  ---------------------------------------------------
  -Hartree energ DENC   =        -0.12834823
  -V(xc)+E(xc)   XCENC  =         0.00303418
  PAW double counting   =         0.38044824       -0.38235746
  entropy T*S    EENTRO =         0.00000000
  eigenvalues    EBANDS =        -0.59329972
  ---------------------------------------------------
  free energy    TOTEN  =        -0.72052300 eV

  energy without entropy =       -0.72052300


----------------------------------------- Iteration    3(  12)  ---------------------------------------


   POT+DIJ:  cpu time    0.1921: real time    0.1921
    HAMIL1:  cpu time    1.0671: real time    1.0672
    LRDIAG:  cpu time    1.0910: real time    1.0911
    LRDIIS:  cpu time    5.4355: real time    5.4365
    LRDIAG:  cpu time    1.1050: real time    1.1052
    MIXING:  cpu time    0.0296: real time    0.0296
    --------------------------------------------
      LOOP:  cpu time    9.4940: real time    9.4954

 Broyden mixing:
  rms(total) = 0.28698E-04    rms(broyden)= 0.28694E-04
  rms(prec ) = 0.40119E-04
  weight for this iteration     100.00

 eigenvalues of (default mixing * dielectric matrix)
  average eigenvalue GAMMA=   1.5609
  3.0449  2.3108  2.3108  1.9578  1.3645  0.7186  1.0575  1.0575  0.8931  0.8931

 Free energy of the ion-electron system (eV)
  ---------------------------------------------------
  -Hartree energ DENC   =        -0.12833171
  -V(xc)+E(xc)   XCENC  =         0.00303405
  PAW double counting   =         0.38041509       -0.38232413
  entropy T*S    EENTRO =         0.00000000
  eigenvalues    EBANDS =        -0.59331445
  ---------------------------------------------------
  free energy    TOTEN  =        -0.72052115 eV

  energy without entropy =       -0.72052115


----------------------------------------- Iteration    3(  13)  ---------------------------------------


   POT+DIJ:  cpu time    0.2364: real time    0.2364
    HAMIL1:  cpu time    1.0716: real time    1.0718
    LRDIAG:  cpu time    1.0324: real time    1.0326
    LRDIIS:  cpu time    4.7175: real time    4.7191
    LRDIAG:  cpu time    0.9932: real time    0.9934
    MIXING:  cpu time    0.0341: real time    0.0341
    --------------------------------------------
      LOOP:  cpu time    8.6841: real time    8.6863

 Broyden mixing:
  rms(total) = 0.61171E-05    rms(broyden)= 0.61163E-05
  rms(prec ) = 0.85924E-05
  weight for this iteration     100.00

 eigenvalues of (default mixing * dielectric matrix)
  average eigenvalue GAMMA=   1.5602
  2.9798  2.7484  2.2837  1.9586  1.3935  0.7186  1.2116  0.9427  0.9427  0.9914
  0.9914

 Free energy of the ion-electron system (eV)
  ---------------------------------------------------
  -Hartree energ DENC   =        -0.12832980
  -V(xc)+E(xc)   XCENC  =         0.00303396
  PAW double counting   =         0.38050636       -0.38241552
  entropy T*S    EENTRO =         0.00000000
  eigenvalues    EBANDS =        -0.59331417
  ---------------------------------------------------
  free energy    TOTEN  =        -0.72051916 eV

  energy without entropy =       -0.72051916


----------------------------------------- Iteration    3(  14)  ---------------------------------------


   POT+DIJ:  cpu time    0.2498: real time    0.2498
    HAMIL1:  cpu time    1.0650: real time    1.0651
    LRDIAG:  cpu time    0.7533: real time    0.7534
    LRDIIS:  cpu time    4.1866: real time    4.1869
    LRDIAG:  cpu time    1.0712: real time    1.0713
    MIXING:  cpu time    0.0013: real time    0.0013
    --------------------------------------------
      LOOP:  cpu time    7.8969: real time    7.8976

 Broyden mixing:
  rms(total) = 0.26701E-05    rms(broyden)= 0.26698E-05
  rms(prec ) = 0.40473E-05
  weight for this iteration     100.00

 eigenvalues of (default mixing * dielectric matrix)
  average eigenvalue GAMMA=   1.5650
  3.0720  2.7666  2.2715  1.9231  1.7837  0.7186  1.1797  1.1393  1.1393  0.9501
  0.9501  0.8856

 Free energy of the ion-electron system (eV)
  ---------------------------------------------------
  -Hartree energ DENC   =        -0.12833052
  -V(xc)+E(xc)   XCENC  =         0.00303394
  PAW double counting   =         0.38052794       -0.38243716
  entropy T*S    EENTRO =         0.00000000
  eigenvalues    EBANDS =        -0.59331277
  ---------------------------------------------------
  free energy    TOTEN  =        -0.72051857 eV

  energy without entropy =       -0.72051857


----------------------------------------- Iteration    3(  15)  ---------------------------------------


   POT+DIJ:  cpu time    0.2420: real time    0.2420
    HAMIL1:  cpu time    1.0691: real time    1.0703
    LRDIAG:  cpu time    1.0330: real time    1.0330
    LRDIIS:  cpu time    3.9070: real time    3.9076
    LRDIAG:  cpu time    0.7964: real time    0.7965
    MIXING:  cpu time    0.0012: real time    0.0012
    --------------------------------------------
      LOOP:  cpu time    7.6347: real time    7.6357

 Broyden mixing:
  rms(total) = 0.93885E-06    rms(broyden)= 0.93873E-06
  rms(prec ) = 0.12956E-05
  weight for this iteration     100.00

 eigenvalues of (default mixing * dielectric matrix)
  average eigenvalue GAMMA=   1.5876
  3.0830  2.8550  2.4525  2.0075  2.0075  1.4461  0.7186  1.0991  0.9111  0.9720
  0.9720  1.0570  1.0570

 Free energy of the ion-electron system (eV)
  ---------------------------------------------------
  -Hartree energ DENC   =        -0.12833048
  -V(xc)+E(xc)   XCENC  =         0.00303394
  PAW double counting   =         0.38053053       -0.38243973
  entropy T*S    EENTRO =         0.00000000
  eigenvalues    EBANDS =        -0.59331309
  ---------------------------------------------------
  free energy    TOTEN  =        -0.72051883 eV

  energy without entropy =       -0.72051883


------------------------ aborting loop because EDIFF is reached ----------------------------------------


 change of polarisation eV/A/(eV/A) component  3 :    -0.199     0.069     1.315
 dielectric tensor                  component  3 :    -0.246     0.085     2.626


--------------------------------------------------------------------------------------------------------


    FORLOC:  cpu time    0.0101: real time    0.0101
    FORNL :  cpu time    0.7105: real time    0.7106
    STRESS:  cpu time    4.4776: real time    4.4783
    FORCOR:  cpu time    0.0449: real time    0.0449
    OFIELD:  cpu time    0.0001: real time    0.0001
    FORLOC:  cpu time    0.0059: real time    0.0059
    FORNL :  cpu time    0.7278: real time    0.7278
    STRESS:  cpu time    4.4378: real time    4.4381
    FORCOR:  cpu time    0.0570: real time    0.0570
    OFIELD:  cpu time    0.0001: real time    0.0001
    FORNLD:  cpu time    2.7950: real time    2.7957

 PIEZOELECTRIC TENSOR FIELD DIRECTION 3  (e Angst)
 -----------------------------------------------------------------------------
     0.00338  0.00057 -0.00113           ( -0.00001  0.00000 -0.00000)
     0.00057 -0.00232  0.00185           (  0.00000 -0.00000  0.00000)
    -0.00111  0.00184 -0.00062           ( -0.00000  0.00000  0.00000)

 PIEZOELECTRIC TENSOR FIELD DIRECTION 3  (C/m^2)
 -----------------------------------------------------------------------------
     0.00037  0.00006 -0.00012
     0.00006 -0.00025  0.00020
    -0.00012  0.00020 -0.00007


      POSITION         DIRECTION 3           BORN EFFECTIVE CHARGE    (rigid.aug.   ionic)
 -----------------------------------------------------------------------------------------
     -0.31975      1.40367      1.21534    -0.01821 -0.04803  1.18424 ( -4.48029  7.00000)
      2.92972      2.63233      4.49795    -0.01822 -0.04811  1.18427 ( -4.48029  7.00000)
      2.00089      3.89001      1.38789     0.13217  0.73464  3.32427 (  0.72598  6.00000)
      0.60909      0.14600      4.32540     0.13193  0.73455  3.32418 (  0.72598  6.00000)
      2.12040     -0.36137      2.37289     0.15430 -0.59517 -0.76430 ( -0.58444  6.00000)
      0.48958      4.39737      3.34040     0.15460 -0.59515 -0.76464 ( -0.58444  6.00000)
      2.87787      4.74359      0.60749     0.41128  0.13337 -1.30543 ( -0.63930  6.00000)
     -0.26790     -0.70759      5.10581     0.41121  0.13312 -1.30562 ( -0.63930  6.00000)
      0.84658      3.35853      0.68689    -0.50680 -0.38349 -1.26692 ( -0.64306  6.00000)
      1.76339      0.67748      5.02640    -0.50644 -0.38325 -1.26647 ( -0.64306  6.00000)
      2.65772      2.90350      2.22946    -0.17581  0.15733 -1.16670 ( -0.64015  6.00000)
     -0.04775      1.13250      3.48383    -0.17561  0.15690 -1.16641 ( -0.64015  6.00000)
 -----------------------------------------------------------------------------------------
    total drift (improves with k-points):  -0.00561 -0.00329  0.01046




--------------------------------------------------------------------------------------------------------


  LATTYP: Found a triclinic cell.
 ALAT       =     4.7071027135
 B/A-ratio  =     1.6251877047
 C/A-ratio  =     1.2865091236
 COS(alpha) =     0.0014050814
 COS(beta)  =     0.2363081262
 COS(gamma) =     0.7030460928
  
  Lattice vectors:
  
 A1 = (   4.7070485494,   0.0162928024,  -0.0156349961)
 A2 = (   5.3969855049,  -5.4215432506,  -0.0278514691)
 A3 = (   1.4071374716,   1.4181252960,  -5.7167086438)


Analysis of symmetry for initial positions (statically):
=====================================================================
 Subroutine PRICEL returns:
 Original cell was already a primitive cell.
 

 Routine SETGRP: Setting up the symmetry group for a 
 triclinic supercell.


 Subroutine GETGRP returns: Found  2 space group operations
 (whereof  2 operations were pure point group operations)
 out of a pool of  2 trial point group operations.


The static configuration has the point symmetry S_2 .


Analysis of symmetry for dynamics (positions and initial velocities):
=====================================================================
 Subroutine PRICEL returns:
 Original cell was already a primitive cell.
 

 Routine SETGRP: Setting up the symmetry group for a 
 triclinic supercell.


 Subroutine GETGRP returns: Found  2 space group operations
 (whereof  2 operations were pure point group operations)
 out of a pool of  2 trial point group operations.


The dynamic configuration has the point symmetry S_2 .


 Subroutine INISYM returns: Found  2 space group operations
 (whereof  2 operations are pure point group operations),
 and found     1 'primitive' translations



 MACROSCOPIC STATIC DIELECTRIC TENSOR (including local field effects in DFT)
 ------------------------------------------------------
           2.480866    -0.044202    -0.246185
          -0.044202     2.330506     0.085273
          -0.246186     0.085274     2.626275
 ------------------------------------------------------



--------------------------------------------------------------------------------------------------------


  LATTYP: Found a triclinic cell.
 ALAT       =     4.7071027135
 B/A-ratio  =     1.6251877047
 C/A-ratio  =     1.2865091236
 COS(alpha) =     0.0014050814
 COS(beta)  =     0.2363081262
 COS(gamma) =     0.7030460928
  
  Lattice vectors:
  
 A1 = (   4.7070485494,   0.0162928024,  -0.0156349961)
 A2 = (   5.3969855049,  -5.4215432506,  -0.0278514691)
 A3 = (   1.4071374716,   1.4181252960,  -5.7167086438)


Analysis of symmetry for initial positions (statically):
=====================================================================
 Subroutine PRICEL returns:
 Original cell was already a primitive cell.
 

 Routine SETGRP: Setting up the symmetry group for a 
 triclinic supercell.


 Subroutine GETGRP returns: Found  2 space group operations
 (whereof  2 operations were pure point group operations)
 out of a pool of  2 trial point group operations.


The static configuration has the point symmetry S_2 .


Analysis of symmetry for dynamics (positions and initial velocities):
=====================================================================
 Subroutine PRICEL returns:
 Original cell was already a primitive cell.
 

 Routine SETGRP: Setting up the symmetry group for a 
 triclinic supercell.


 Subroutine GETGRP returns: Found  2 space group operations
 (whereof  2 operations were pure point group operations)
 out of a pool of  2 trial point group operations.


The dynamic configuration has the point symmetry S_2 .


 Subroutine INISYM returns: Found  2 space group operations
 (whereof  2 operations are pure point group operations),
 and found     1 'primitive' translations



--------------------------------------------------------------------------------------------------------




 MACROSCOPIC STATIC DIELECTRIC TENSOR (including local field effects in DFT)
 ------------------------------------------------------
           2.480866    -0.044202    -0.246185
          -0.044202     2.330506     0.085273
          -0.246186     0.085274     2.626275
 ------------------------------------------------------


 PIEZOELECTRIC TENSOR  for field in x, y, z        (e  Angst)
          XX          YY          ZZ          XY          YZ          ZX
  --------------------------------------------------------------------------------
  x     0.00135    -0.00169     0.00043    -0.00147     0.00343    -0.00329
  y    -0.00040    -0.00132     0.00156    -0.00018    -0.00139    -0.00223
  z     0.00338    -0.00232    -0.00062     0.00057     0.00184    -0.00113

 PIEZOELECTRIC TENSOR  for field in x, y, z        (C/m^2)
          XX          YY          ZZ          XY          YZ          ZX
  --------------------------------------------------------------------------------
  x     0.00000     0.00000     0.00000     0.00000     0.00000     0.00000
  y     0.00000     0.00000     0.00000     0.00000     0.00000     0.00000
  z     0.00000     0.00000     0.00000     0.00000     0.00000     0.00000
 
 BORN EFFECTIVE CHARGES (in e, cummulative output)
 -------------------------------------------------
 ion    1
    1     1.22293     0.04016     0.00649
    2     0.02790     1.17877    -0.03877
    3    -0.01774    -0.04775     1.18337
 ion    2
    1     1.22296     0.04020     0.00648
    2     0.02792     1.17877    -0.03878
    3    -0.01775    -0.04783     1.18340
 ion    3
    1     2.93303    -0.48087    -0.07999
    2     0.08106     3.23752     0.07696
    3     0.13263     0.73491     3.32340
 ion    4
    1     2.93307    -0.48086    -0.08001
    2     0.08085     3.23757     0.07678
    3     0.13240     0.73482     3.32331
 ion    5
    1    -0.49578     0.38161     0.21811
    2     0.19220    -0.86310    -0.33564
    3     0.15477    -0.59490    -0.76517
 ion    6
    1    -0.49616     0.38168     0.21830
    2     0.19230    -0.86325    -0.33564
    3     0.15507    -0.59488    -0.76551
 ion    7
    1    -1.24051    -0.24662     0.44217
    2    -0.26015    -1.18528     0.17541
    3     0.41174     0.13364    -1.30630
 ion    8
    1    -1.24011    -0.24637     0.44239
    2    -0.26026    -1.18536     0.17537
    3     0.41168     0.13339    -1.30650
 ion    9
    1    -1.33218    -0.13687    -0.24261
    2    -0.32664    -1.05856    -0.24345
    3    -0.50633    -0.38321    -1.26779
 ion   10
    1    -1.33224    -0.13702    -0.24273
    2    -0.32628    -1.05840    -0.24317
    3    -0.50597    -0.38297    -1.26734
 ion   11
    1    -1.08745     0.44233    -0.34420
    2     0.28536    -1.30904     0.36526
    3    -0.17535     0.15761    -1.16757
 ion   12
    1    -1.08757     0.44261    -0.34440
    2     0.28574    -1.30962     0.36567
    3    -0.17515     0.15717    -1.16728


--------------------------------------------------------------------------------------------------------


     LOOP+:  cpu time 1129.5320: real time 1132.8643
    4ORBIT:  cpu time    0.0000: real time    0.0000
 BZINTS: Fermi energy:  0.669045; 74.000000 electrons
         Band energy:-687.282922;  BLOECHL correction:  0.000000

 total amount of memory used by VASP MPI-rank0   155835. kBytes
=======================================================================

   base      :      30000. kBytes
   nonl-proj :     101076. kBytes
   fftplans  :       1596. kBytes
   grid      :       6113. kBytes
   one-center:         36. kBytes
   wavefun   :      17014. kBytes
 
  
  
 General timing and accounting informations for this job:
 ========================================================
  
                  Total CPU time used (sec):     1136.101
                            User time (sec):     1131.212
                          System time (sec):        4.889
                         Elapsed time (sec):     1141.713
  
                   Maximum memory used (kb):      397772.
                   Average memory used (kb):           0.
  
                          Minor page faults:       268575
                          Major page faults:            0
                 Voluntary context switches:         2209
