 vasp.5.4.4.18Apr17-6-g9f103f2a35 (build May 20 2017 13:34:48) complex          
  
 executed on      Linux_Leeds_IFC date 2017.05.29  11:40:19
 running on   24 total cores
 distrk:  each k-point on   24 cores,    1 groups
 distr:  one band on NCORES_PER_BAND=   1 cores,   24 groups


--------------------------------------------------------------------------------------------------------


 INCAR:
 POTCAR:    PAW_PBE Na_pv 19Sep2006               
 POTCAR:    PAW_PBE S 06Sep2000                   
 POTCAR:    PAW_PBE O 08Apr2002                   

 ----------------------------------------------------------------------------- 
|                                                                             |
|           W    W    AA    RRRRR   N    N  II  N    N   GGGG   !!!           |
|           W    W   A  A   R    R  NN   N  II  NN   N  G    G  !!!           |
|           W    W  A    A  R    R  N N  N  II  N N  N  G       !!!           |
|           W WW W  AAAAAA  RRRRR   N  N N  II  N  N N  G  GGG   !            |
|           WW  WW  A    A  R   R   N   NN  II  N   NN  G    G                |
|           W    W  A    A  R    R  N    N  II  N    N   GGGG   !!!           |
|                                                                             |
|      For optimal performance we recommend to set                            |
|        NCORE= 4 - approx SQRT( number of cores)                             |
|      NCORE specifies how many cores store one orbital (NPAR=cpu/NCORE).     |
|      This setting can  greatly improve the performance of VASP for DFT.     |
|      The default,   NCORE=1            might be grossly inefficient         |
|      on modern multi-core architectures or massively parallel machines.     |
|      Do your own testing !!!!                                               |
|      Unfortunately you need to use the default for GW and RPA calculations. |
|      (for HF NCORE is supported but not extensively tested yet)             |
|                                                                             |
 ----------------------------------------------------------------------------- 

 POTCAR:    PAW_PBE Na_pv 19Sep2006               
   VRHFIN =Na: p6s1                                                             
   LEXCH  = PE                                                                  
   EATOM  =   766.0439 eV,   56.3026 Ry                                         
                                                                                
   TITEL  = PAW_PBE Na_pv 19Sep2006                                             
   LULTRA =        F    use ultrasoft PP ?                                      
   IUNSCR =        1    unscreen: 0-lin 1-nonlin 2-no                           
   RPACOR =    1.800    partial core radius                                     
   POMASS =   22.990; ZVAL   =    7.000    mass and valenz                      
   RCORE  =    2.200    outmost cutoff radius                                   
   RWIGS  =    2.200; RWIGS  =    1.164    wigner-seitz radius (au A)           
   ENMAX  =  259.561; ENMIN  =  194.671 eV                                      
   ICORE  =        2    local potential                                         
   LCOR   =        T    correct aug charges                                     
   LPAW   =        T    paw PP                                                  
   EAUG   =  368.056                                                            
   DEXC   =    0.000                                                            
   RMAX   =    2.245    core radius for proj-oper                               
   RAUG   =    1.300    factor for augmentation sphere                          
   RDEP   =    2.259    radius for radial grids                                 
   RDEPT  =    1.738    core radius for aug-charge                              
                                                                                
   Atomic configuration                                                         
    5 entries                                                                   
     n  l   j            E        occ.                                          
     1  0  0.50     -1033.6933   2.0000                                         
     2  0  0.50       -56.7526   2.0000                                         
     2  1  1.50       -28.6721   6.0000                                         
     3  0  0.50        -2.7440   1.0000                                         
     3  2  1.50        -1.3606   0.0000                                         
   Description                                                                  
     l       E           TYP  RCUT    TYP  RCUT                                 
     1    -28.6720912     23  2.000                                             
     1      6.8029130     23  2.000                                             
     0     -2.7439560     23  2.200                                             
     0     34.0145650     23  2.200                                             
     2     -1.3605826     23  2.200                                             
  local pseudopotential read in
  partial core-charges read in
  partial kinetic energy density read in
  atomic valenz-charges read in
  non local Contribution for L=           1  read in
    real space projection operators read in
  non local Contribution for L=           1  read in
    real space projection operators read in
  non local Contribution for L=           0  read in
    real space projection operators read in
  non local Contribution for L=           0  read in
    real space projection operators read in
    PAW grid and wavefunctions read in
 
   number of l-projection  operators is LMAX  =           4
   number of lm-projection operators is LMMAX =           8
 
 POTCAR:    PAW_PBE S 06Sep2000                   
   VRHFIN =S : s2p4                                                             
   LEXCH  = PE                                                                  
   EATOM  =   276.8230 eV,   20.3459 Ry                                         
                                                                                
   TITEL  = PAW_PBE S 06Sep2000                                                 
   LULTRA =        F    use ultrasoft PP ?                                      
   IUNSCR =        1    unscreen: 0-lin 1-nonlin 2-no                           
   RPACOR =    1.500    partial core radius                                     
   POMASS =   32.066; ZVAL   =    6.000    mass and valenz                      
   RCORE  =    1.900    outmost cutoff radius                                   
   RWIGS  =    2.200; RWIGS  =    1.164    wigner-seitz radius (au A)           
   ENMAX  =  258.689; ENMIN  =  194.016 eV                                      
   ICORE  =        2    local potential                                         
   LCOR   =        T    correct aug charges                                     
   LPAW   =        T    paw PP                                                  
   EAUG   =  335.092                                                            
   DEXC   =    0.000                                                            
   RMAX   =    1.942    core radius for proj-oper                               
   RAUG   =    1.300    factor for augmentation sphere                          
   RDEP   =    1.954    radius for radial grids                                 
   RDEPT  =    1.744    core radius for aug-charge                              
                                                                                
   Atomic configuration                                                         
    6 entries                                                                   
     n  l   j            E        occ.                                          
     1  0  0.50     -2405.8406   2.0000                                         
     2  0  0.50      -211.7007   2.0000                                         
     2  1  1.50      -156.4958   6.0000                                         
     3  0  0.50       -17.2562   2.0000                                         
     3  1  0.50        -7.0085   4.0000                                         
     3  2  1.50        -6.8029   0.0000                                         
   Description                                                                  
     l       E           TYP  RCUT    TYP  RCUT                                 
     0    -17.2561641     23  1.900                                             
     0    -15.8743224     23  1.900                                             
     1     -7.0085400     23  1.900                                             
     1     -2.7779785     23  1.900                                             
     2     -6.8029130     23  1.900                                             
  local pseudopotential read in
  partial core-charges read in
  partial kinetic energy density read in
  atomic valenz-charges read in
  non local Contribution for L=           0  read in
    real space projection operators read in
  non local Contribution for L=           0  read in
    real space projection operators read in
  non local Contribution for L=           1  read in
    real space projection operators read in
  non local Contribution for L=           1  read in
    real space projection operators read in
    PAW grid and wavefunctions read in
 
   number of l-projection  operators is LMAX  =           4
   number of lm-projection operators is LMMAX =           8
 
 POTCAR:    PAW_PBE O 08Apr2002                   
   VRHFIN =O: s2p4                                                              
   LEXCH  = PE                                                                  
   EATOM  =   432.3788 eV,   31.7789 Ry                                         
                                                                                
   TITEL  = PAW_PBE O 08Apr2002                                                 
   LULTRA =        F    use ultrasoft PP ?                                      
   IUNSCR =        1    unscreen: 0-lin 1-nonlin 2-no                           
   RPACOR =    1.200    partial core radius                                     
   POMASS =   16.000; ZVAL   =    6.000    mass and valenz                      
   RCORE  =    1.520    outmost cutoff radius                                   
   RWIGS  =    1.550; RWIGS  =    0.820    wigner-seitz radius (au A)           
   ENMAX  =  400.000; ENMIN  =  300.000 eV                                      
   ICORE  =        2    local potential                                         
   LCOR   =        T    correct aug charges                                     
   LPAW   =        T    paw PP                                                  
   EAUG   =  605.392                                                            
   DEXC   =    0.000                                                            
   RMAX   =    1.553    core radius for proj-oper                               
   RAUG   =    1.300    factor for augmentation sphere                          
   RDEP   =    1.550    radius for radial grids                                 
   RDEPT  =    1.329    core radius for aug-charge                              
                                                                                
   Atomic configuration                                                         
    4 entries                                                                   
     n  l   j            E        occ.                                          
     1  0  0.50      -514.6923   2.0000                                         
     2  0  0.50       -23.9615   2.0000                                         
     2  1  0.50        -9.0305   4.0000                                         
     3  2  1.50        -9.5241   0.0000                                         
   Description                                                                  
     l       E           TYP  RCUT    TYP  RCUT                                 
     0    -23.9615318     23  1.200                                             
     0     -9.5240782     23  1.200                                             
     1     -9.0304911     23  1.520                                             
     1      8.1634956     23  1.520                                             
     2     -9.5240782      7  1.500                                             
  local pseudopotential read in
  partial core-charges read in
  partial kinetic energy density read in
  kinetic energy density of atom read in
  atomic valenz-charges read in
  non local Contribution for L=           0  read in
    real space projection operators read in
  non local Contribution for L=           0  read in
    real space projection operators read in
  non local Contribution for L=           1  read in
    real space projection operators read in
  non local Contribution for L=           1  read in
    real space projection operators read in
    PAW grid and wavefunctions read in
 
   number of l-projection  operators is LMAX  =           4
   number of lm-projection operators is LMMAX =           8
 
  PAW_PBE Na_pv 19Sep2006               :
 energy of atom  1       EATOM= -766.0439
 kinetic energy error for atom=    0.0017 (will be added to EATOM!!)
  PAW_PBE S 06Sep2000                   :
 energy of atom  2       EATOM= -276.8230
 kinetic energy error for atom=    0.0009 (will be added to EATOM!!)
  PAW_PBE O 08Apr2002                   :
 energy of atom  3       EATOM= -432.3788
 kinetic energy error for atom=    0.0168 (will be added to EATOM!!)
 
 
 POSCAR: Generated by cif2cell 1.2.10 from COD re
  positions in direct lattice
  velocities in cartesian coordinates
 exchange correlation table for  LEXCH =        8
   RHO(1)=    0.500       N(1)  =     2000
   RHO(2)=  100.500       N(2)  =     4000
 


--------------------------------------------------------------------------------------------------------


 ion  position               nearest neighbor table
   1  0.036  0.314  0.209-  12 2.33   9 2.37  10 2.37
   2  0.964  0.686  0.791-  11 2.33  10 2.37   9 2.37
   3  0.612  0.778  0.245-   7 1.45   9 1.45  11 1.46   5 1.65
   4  0.388  0.222  0.755-   8 1.45  10 1.45  12 1.46   6 1.65
   5  0.581  0.039  0.417-   6 1.51   3 1.65
   6  0.419  0.961  0.583-   5 1.51   4 1.65
   7  0.774  0.896  0.108-   3 1.45
   8  0.226  0.104  0.892-   4 1.45
   9  0.315  0.648  0.122-   3 1.45   1 2.37   2 2.37
  10  0.685  0.352  0.878-   4 1.45   2 2.37   1 2.37
  11  0.773  0.639  0.393-   3 1.46   2 2.33
  12  0.227  0.361  0.607-   4 1.46   1 2.33
 
  LATTYP: Found a triclinic cell.
 ALAT       =     6.8202860714
 B/A-ratio  =     0.8930710437
 C/A-ratio  =     1.1433654942
 COS(alpha) =     0.0056662097
 COS(beta)  =     0.4993509142
 COS(gamma) =     0.7314001840
  
  Lattice vectors:
  
 A1 = (   3.3749394452,  -1.4464823106,   5.7475016105)
 A2 = (  -1.4050605548,  -1.4464823106,   5.7475016105)
 A3 = (   5.4997722659,  -5.5283408800,   0.0000000000)


Analysis of symmetry for initial positions (statically):
=====================================================================
 Subroutine PRICEL returns:
 Original cell was already a primitive cell.
 

 Routine SETGRP: Setting up the symmetry group for a 
 triclinic supercell.


 Subroutine GETGRP returns: Found  2 space group operations
 (whereof  2 operations were pure point group operations)
 out of a pool of  2 trial point group operations.


The static configuration has the point symmetry S_2 .


Analysis of symmetry for dynamics (positions and initial velocities):
=====================================================================
 Subroutine PRICEL returns:
 Original cell was already a primitive cell.
 

 Routine SETGRP: Setting up the symmetry group for a 
 triclinic supercell.


 Subroutine GETGRP returns: Found  2 space group operations
 (whereof  2 operations were pure point group operations)
 out of a pool of  2 trial point group operations.


The dynamic configuration has the point symmetry S_2 .


 Subroutine INISYM returns: Found  2 space group operations
 (whereof  2 operations are pure point group operations),
 and found     1 'primitive' translations

 
 
 KPOINTS: Generated by cif2cell 1.2.10. k-space re

Automatic generation of k-mesh.
Space group operators:
 irot       det(A)        alpha          n_x          n_y          n_z        tau_x        tau_y        tau_z
    1     1.000000     0.000000     1.000000     0.000000     0.000000     0.000000     0.000000     0.000000
    2    -1.000000     0.000000     1.000000     0.000000     0.000000     0.000000     0.000000     0.000000
 
 Subroutine IBZKPT returns following result:
 ===========================================
 
 Found    106 irreducible k-points:
 
 Following reciprocal coordinates:
            Coordinates               Weight
  0.000000  0.000000  0.000000      1.000000
  0.142857  0.000000  0.000000      2.000000
  0.285714  0.000000  0.000000      2.000000
  0.428571  0.000000  0.000000      2.000000
  0.000000  0.166667  0.000000      2.000000
  0.142857  0.166667 -0.000000      2.000000
  0.285714  0.166667  0.000000      2.000000
  0.428571  0.166667  0.000000      2.000000
 -0.428571  0.166667  0.000000      2.000000
 -0.285714  0.166667 -0.000000      2.000000
 -0.142857  0.166667 -0.000000      2.000000
  0.000000  0.333333  0.000000      2.000000
  0.142857  0.333333  0.000000      2.000000
  0.285714  0.333333  0.000000      2.000000
  0.428571  0.333333  0.000000      2.000000
 -0.428571  0.333333 -0.000000      2.000000
 -0.285714  0.333333  0.000000      2.000000
 -0.142857  0.333333  0.000000      2.000000
  0.000000  0.500000  0.000000      1.000000
  0.142857  0.500000  0.000000      2.000000
  0.285714  0.500000  0.000000      2.000000
  0.428571  0.500000  0.000000      2.000000
  0.000000  0.000000  0.200000      2.000000
  0.142857  0.000000  0.200000      2.000000
  0.285714  0.000000  0.200000      2.000000
  0.428571  0.000000  0.200000      2.000000
 -0.428571  0.000000  0.200000      2.000000
 -0.285714  0.000000  0.200000      2.000000
 -0.142857  0.000000  0.200000      2.000000
  0.000000  0.166667  0.200000      2.000000
  0.142857  0.166667  0.200000      2.000000
  0.285714  0.166667  0.200000      2.000000
  0.428571  0.166667  0.200000      2.000000
 -0.428571  0.166667  0.200000      2.000000
 -0.285714  0.166667  0.200000      2.000000
 -0.142857  0.166667  0.200000      2.000000
  0.000000  0.333333  0.200000      2.000000
  0.142857  0.333333  0.200000      2.000000
  0.285714  0.333333  0.200000      2.000000
  0.428571  0.333333  0.200000      2.000000
 -0.428571  0.333333  0.200000      2.000000
 -0.285714  0.333333  0.200000      2.000000
 -0.142857  0.333333  0.200000      2.000000
  0.000000  0.500000  0.200000      2.000000
  0.142857  0.500000  0.200000      2.000000
  0.285714  0.500000  0.200000      2.000000
  0.428571  0.500000  0.200000      2.000000
 -0.428571  0.500000  0.200000      2.000000
 -0.285714  0.500000  0.200000      2.000000
 -0.142857  0.500000  0.200000      2.000000
  0.000000 -0.333333  0.200000      2.000000
  0.142857 -0.333333  0.200000      2.000000
  0.285714 -0.333333  0.200000      2.000000
  0.428571 -0.333333  0.200000      2.000000
 -0.428571 -0.333333  0.200000      2.000000
 -0.285714 -0.333333  0.200000      2.000000
 -0.142857 -0.333333  0.200000      2.000000
  0.000000 -0.166667  0.200000      2.000000
  0.142857 -0.166667  0.200000      2.000000
  0.285714 -0.166667  0.200000      2.000000
  0.428571 -0.166667  0.200000      2.000000
 -0.428571 -0.166667  0.200000      2.000000
 -0.285714 -0.166667  0.200000      2.000000
 -0.142857 -0.166667  0.200000      2.000000
  0.000000  0.000000  0.400000      2.000000
  0.142857  0.000000  0.400000      2.000000
  0.285714  0.000000  0.400000      2.000000
  0.428571  0.000000  0.400000      2.000000
 -0.428571  0.000000  0.400000      2.000000
 -0.285714  0.000000  0.400000      2.000000
 -0.142857  0.000000  0.400000      2.000000
  0.000000  0.166667  0.400000      2.000000
  0.142857  0.166667  0.400000      2.000000
  0.285714  0.166667  0.400000      2.000000
  0.428571  0.166667  0.400000      2.000000
 -0.428571  0.166667  0.400000      2.000000
 -0.285714  0.166667  0.400000      2.000000
 -0.142857  0.166667  0.400000      2.000000
  0.000000  0.333333  0.400000      2.000000
  0.142857  0.333333  0.400000      2.000000
  0.285714  0.333333  0.400000      2.000000
  0.428571  0.333333  0.400000      2.000000
 -0.428571  0.333333  0.400000      2.000000
 -0.285714  0.333333  0.400000      2.000000
 -0.142857  0.333333  0.400000      2.000000
  0.000000  0.500000  0.400000      2.000000
  0.142857  0.500000  0.400000      2.000000
  0.285714  0.500000  0.400000      2.000000
  0.428571  0.500000  0.400000      2.000000
 -0.428571  0.500000  0.400000      2.000000
 -0.285714  0.500000  0.400000      2.000000
 -0.142857  0.500000  0.400000      2.000000
  0.000000 -0.333333  0.400000      2.000000
  0.142857 -0.333333  0.400000      2.000000
  0.285714 -0.333333  0.400000      2.000000
  0.428571 -0.333333  0.400000      2.000000
 -0.428571 -0.333333  0.400000      2.000000
 -0.285714 -0.333333  0.400000      2.000000
 -0.142857 -0.333333  0.400000      2.000000
  0.000000 -0.166667  0.400000      2.000000
  0.142857 -0.166667  0.400000      2.000000
  0.285714 -0.166667  0.400000      2.000000
  0.428571 -0.166667  0.400000      2.000000
 -0.428571 -0.166667  0.400000      2.000000
 -0.285714 -0.166667  0.400000      2.000000
 -0.142857 -0.166667  0.400000      2.000000
 
 Following cartesian coordinates:
            Coordinates               Weight
  0.000000  0.000000  0.000000      1.000000
  0.142857  0.018600  0.039604      2.000000
  0.285714  0.037199  0.079209      2.000000
  0.428571  0.055799  0.118813      2.000000
  0.000000  0.144106  0.036267      2.000000
  0.142857  0.162705  0.075872      2.000000
  0.285714  0.181305  0.115476      2.000000
  0.428571  0.199905  0.155081      2.000000
 -0.428571  0.088307 -0.082546      2.000000
 -0.285714  0.106907 -0.042942      2.000000
 -0.142857  0.125506 -0.003337      2.000000
  0.000000  0.288212  0.072535      2.000000
  0.142857  0.306811  0.112139      2.000000
  0.285714  0.325411  0.151744      2.000000
  0.428571  0.344010  0.191348      2.000000
 -0.428571  0.232413 -0.046279      2.000000
 -0.285714  0.251013 -0.006674      2.000000
 -0.142857  0.269612  0.032930      2.000000
  0.000000  0.432318  0.108802      1.000000
  0.142857  0.450917  0.148407      2.000000
  0.285714  0.469517  0.188011      2.000000
  0.428571  0.488116  0.227616      2.000000
  0.000000  0.000000  0.166333      2.000000
  0.142857  0.018600  0.205938      2.000000
  0.285714  0.037199  0.245542      2.000000
  0.428571  0.055799  0.285147      2.000000
 -0.428571 -0.055799  0.047520      2.000000
 -0.285714 -0.037199  0.087124      2.000000
 -0.142857 -0.018600  0.126729      2.000000
  0.000000  0.144106  0.202600      2.000000
  0.142857  0.162705  0.242205      2.000000
  0.285714  0.181305  0.281809      2.000000
  0.428571  0.199905  0.321414      2.000000
 -0.428571  0.088307  0.083787      2.000000
 -0.285714  0.106907  0.123392      2.000000
 -0.142857  0.125506  0.162996      2.000000
  0.000000  0.288212  0.238868      2.000000
  0.142857  0.306811  0.278472      2.000000
  0.285714  0.325411  0.318077      2.000000
  0.428571  0.344010  0.357681      2.000000
 -0.428571  0.232413  0.120054      2.000000
 -0.285714  0.251013  0.159659      2.000000
 -0.142857  0.269612  0.199263      2.000000
  0.000000  0.432318  0.275135      2.000000
  0.142857  0.450917  0.314740      2.000000
  0.285714  0.469517  0.354344      2.000000
  0.428571  0.488116  0.393949      2.000000
 -0.428571  0.376519  0.156322      2.000000
 -0.285714  0.395119  0.195926      2.000000
 -0.142857  0.413718  0.235531      2.000000
  0.000000 -0.288212  0.093798      2.000000
  0.142857 -0.269612  0.133403      2.000000
  0.285714 -0.251013  0.173007      2.000000
  0.428571 -0.232413  0.212612      2.000000
 -0.428571 -0.344010 -0.025015      2.000000
 -0.285714 -0.325411  0.014589      2.000000
 -0.142857 -0.306811  0.054194      2.000000
  0.000000 -0.144106  0.130066      2.000000
  0.142857 -0.125506  0.169670      2.000000
  0.285714 -0.106907  0.209275      2.000000
  0.428571 -0.088307  0.248879      2.000000
 -0.428571 -0.199905  0.011252      2.000000
 -0.285714 -0.181305  0.050857      2.000000
 -0.142857 -0.162705  0.090461      2.000000
  0.000000  0.000000  0.332666      2.000000
  0.142857  0.018600  0.372271      2.000000
  0.285714  0.037199  0.411875      2.000000
  0.428571  0.055799  0.451480      2.000000
 -0.428571 -0.055799  0.213853      2.000000
 -0.285714 -0.037199  0.253457      2.000000
 -0.142857 -0.018600  0.293062      2.000000
  0.000000  0.144106  0.368934      2.000000
  0.142857  0.162705  0.408538      2.000000
  0.285714  0.181305  0.448143      2.000000
  0.428571  0.199905  0.487747      2.000000
 -0.428571  0.088307  0.250120      2.000000
 -0.285714  0.106907  0.289725      2.000000
 -0.142857  0.125506  0.329329      2.000000
  0.000000  0.288212  0.405201      2.000000
  0.142857  0.306811  0.444805      2.000000
  0.285714  0.325411  0.484410      2.000000
  0.428571  0.344010  0.524014      2.000000
 -0.428571  0.232413  0.286388      2.000000
 -0.285714  0.251013  0.325992      2.000000
 -0.142857  0.269612  0.365597      2.000000
  0.000000  0.432318  0.441468      2.000000
  0.142857  0.450917  0.481073      2.000000
  0.285714  0.469517  0.520677      2.000000
  0.428571  0.488116  0.560282      2.000000
 -0.428571  0.376519  0.322655      2.000000
 -0.285714  0.395119  0.362259      2.000000
 -0.142857  0.413718  0.401864      2.000000
  0.000000 -0.288212  0.260132      2.000000
  0.142857 -0.269612  0.299736      2.000000
  0.285714 -0.251013  0.339341      2.000000
  0.428571 -0.232413  0.378945      2.000000
 -0.428571 -0.344010  0.141318      2.000000
 -0.285714 -0.325411  0.180923      2.000000
 -0.142857 -0.306811  0.220527      2.000000
  0.000000 -0.144106  0.296399      2.000000
  0.142857 -0.125506  0.336003      2.000000
  0.285714 -0.106907  0.375608      2.000000
  0.428571 -0.088307  0.415212      2.000000
 -0.428571 -0.199905  0.177585      2.000000
 -0.285714 -0.181305  0.217190      2.000000
 -0.142857 -0.162705  0.256794      2.000000
 
 TETIRR: Found    628 inequivalent tetrahedra from     1260
 
 Subroutine IBZKPT_HF returns following result:
 ==============================================
 
 Found    210 k-points in 1st BZ
 the following    210 k-points will be used (e.g. in the exchange kernel)
 Following reciprocal coordinates:   # in IRBZ
  0.000000  0.000000  0.000000    0.00476190   1 t-inv F
  0.142857  0.000000  0.000000    0.00476190   2 t-inv F
  0.285714  0.000000  0.000000    0.00476190   3 t-inv F
  0.428571  0.000000  0.000000    0.00476190   4 t-inv F
  0.000000  0.166667  0.000000    0.00476190   5 t-inv F
  0.142857  0.166667 -0.000000    0.00476190   6 t-inv F
  0.285714  0.166667  0.000000    0.00476190   7 t-inv F
  0.428571  0.166667  0.000000    0.00476190   8 t-inv F
 -0.428571  0.166667  0.000000    0.00476190   9 t-inv F
 -0.285714  0.166667 -0.000000    0.00476190  10 t-inv F
 -0.142857  0.166667 -0.000000    0.00476190  11 t-inv F
  0.000000  0.333333  0.000000    0.00476190  12 t-inv F
  0.142857  0.333333  0.000000    0.00476190  13 t-inv F
  0.285714  0.333333  0.000000    0.00476190  14 t-inv F
  0.428571  0.333333  0.000000    0.00476190  15 t-inv F
 -0.428571  0.333333 -0.000000    0.00476190  16 t-inv F
 -0.285714  0.333333  0.000000    0.00476190  17 t-inv F
 -0.142857  0.333333  0.000000    0.00476190  18 t-inv F
  0.000000  0.500000  0.000000    0.00476190  19 t-inv F
  0.142857  0.500000  0.000000    0.00476190  20 t-inv F
  0.285714  0.500000  0.000000    0.00476190  21 t-inv F
  0.428571  0.500000  0.000000    0.00476190  22 t-inv F
  0.000000  0.000000  0.200000    0.00476190  23 t-inv F
  0.142857  0.000000  0.200000    0.00476190  24 t-inv F
  0.285714  0.000000  0.200000    0.00476190  25 t-inv F
  0.428571  0.000000  0.200000    0.00476190  26 t-inv F
 -0.428571  0.000000  0.200000    0.00476190  27 t-inv F
 -0.285714  0.000000  0.200000    0.00476190  28 t-inv F
 -0.142857  0.000000  0.200000    0.00476190  29 t-inv F
  0.000000  0.166667  0.200000    0.00476190  30 t-inv F
  0.142857  0.166667  0.200000    0.00476190  31 t-inv F
  0.285714  0.166667  0.200000    0.00476190  32 t-inv F
  0.428571  0.166667  0.200000    0.00476190  33 t-inv F
 -0.428571  0.166667  0.200000    0.00476190  34 t-inv F
 -0.285714  0.166667  0.200000    0.00476190  35 t-inv F
 -0.142857  0.166667  0.200000    0.00476190  36 t-inv F
  0.000000  0.333333  0.200000    0.00476190  37 t-inv F
  0.142857  0.333333  0.200000    0.00476190  38 t-inv F
  0.285714  0.333333  0.200000    0.00476190  39 t-inv F
  0.428571  0.333333  0.200000    0.00476190  40 t-inv F
 -0.428571  0.333333  0.200000    0.00476190  41 t-inv F
 -0.285714  0.333333  0.200000    0.00476190  42 t-inv F
 -0.142857  0.333333  0.200000    0.00476190  43 t-inv F
  0.000000  0.500000  0.200000    0.00476190  44 t-inv F
  0.142857  0.500000  0.200000    0.00476190  45 t-inv F
  0.285714  0.500000  0.200000    0.00476190  46 t-inv F
  0.428571  0.500000  0.200000    0.00476190  47 t-inv F
 -0.428571  0.500000  0.200000    0.00476190  48 t-inv F
 -0.285714  0.500000  0.200000    0.00476190  49 t-inv F
 -0.142857  0.500000  0.200000    0.00476190  50 t-inv F
  0.000000 -0.333333  0.200000    0.00476190  51 t-inv F
  0.142857 -0.333333  0.200000    0.00476190  52 t-inv F
  0.285714 -0.333333  0.200000    0.00476190  53 t-inv F
  0.428571 -0.333333  0.200000    0.00476190  54 t-inv F
 -0.428571 -0.333333  0.200000    0.00476190  55 t-inv F
 -0.285714 -0.333333  0.200000    0.00476190  56 t-inv F
 -0.142857 -0.333333  0.200000    0.00476190  57 t-inv F
  0.000000 -0.166667  0.200000    0.00476190  58 t-inv F
  0.142857 -0.166667  0.200000    0.00476190  59 t-inv F
  0.285714 -0.166667  0.200000    0.00476190  60 t-inv F
  0.428571 -0.166667  0.200000    0.00476190  61 t-inv F
 -0.428571 -0.166667  0.200000    0.00476190  62 t-inv F
 -0.285714 -0.166667  0.200000    0.00476190  63 t-inv F
 -0.142857 -0.166667  0.200000    0.00476190  64 t-inv F
  0.000000  0.000000  0.400000    0.00476190  65 t-inv F
  0.142857  0.000000  0.400000    0.00476190  66 t-inv F
  0.285714  0.000000  0.400000    0.00476190  67 t-inv F
  0.428571  0.000000  0.400000    0.00476190  68 t-inv F
 -0.428571  0.000000  0.400000    0.00476190  69 t-inv F
 -0.285714  0.000000  0.400000    0.00476190  70 t-inv F
 -0.142857  0.000000  0.400000    0.00476190  71 t-inv F
  0.000000  0.166667  0.400000    0.00476190  72 t-inv F
  0.142857  0.166667  0.400000    0.00476190  73 t-inv F
  0.285714  0.166667  0.400000    0.00476190  74 t-inv F
  0.428571  0.166667  0.400000    0.00476190  75 t-inv F
 -0.428571  0.166667  0.400000    0.00476190  76 t-inv F
 -0.285714  0.166667  0.400000    0.00476190  77 t-inv F
 -0.142857  0.166667  0.400000    0.00476190  78 t-inv F
  0.000000  0.333333  0.400000    0.00476190  79 t-inv F
  0.142857  0.333333  0.400000    0.00476190  80 t-inv F
  0.285714  0.333333  0.400000    0.00476190  81 t-inv F
  0.428571  0.333333  0.400000    0.00476190  82 t-inv F
 -0.428571  0.333333  0.400000    0.00476190  83 t-inv F
 -0.285714  0.333333  0.400000    0.00476190  84 t-inv F
 -0.142857  0.333333  0.400000    0.00476190  85 t-inv F
  0.000000  0.500000  0.400000    0.00476190  86 t-inv F
  0.142857  0.500000  0.400000    0.00476190  87 t-inv F
  0.285714  0.500000  0.400000    0.00476190  88 t-inv F
  0.428571  0.500000  0.400000    0.00476190  89 t-inv F
 -0.428571  0.500000  0.400000    0.00476190  90 t-inv F
 -0.285714  0.500000  0.400000    0.00476190  91 t-inv F
 -0.142857  0.500000  0.400000    0.00476190  92 t-inv F
  0.000000 -0.333333  0.400000    0.00476190  93 t-inv F
  0.142857 -0.333333  0.400000    0.00476190  94 t-inv F
  0.285714 -0.333333  0.400000    0.00476190  95 t-inv F
  0.428571 -0.333333  0.400000    0.00476190  96 t-inv F
 -0.428571 -0.333333  0.400000    0.00476190  97 t-inv F
 -0.285714 -0.333333  0.400000    0.00476190  98 t-inv F
 -0.142857 -0.333333  0.400000    0.00476190  99 t-inv F
  0.000000 -0.166667  0.400000    0.00476190 100 t-inv F
  0.142857 -0.166667  0.400000    0.00476190 101 t-inv F
  0.285714 -0.166667  0.400000    0.00476190 102 t-inv F
  0.428571 -0.166667  0.400000    0.00476190 103 t-inv F
 -0.428571 -0.166667  0.400000    0.00476190 104 t-inv F
 -0.285714 -0.166667  0.400000    0.00476190 105 t-inv F
 -0.142857 -0.166667  0.400000    0.00476190 106 t-inv F
 -0.142857  0.000000 -0.000000    0.00476190   2 t-inv F
 -0.285714  0.000000 -0.000000    0.00476190   3 t-inv F
 -0.428571  0.000000 -0.000000    0.00476190   4 t-inv F
  0.000000 -0.166667  0.000000    0.00476190   5 t-inv F
 -0.142857 -0.166667  0.000000    0.00476190   6 t-inv F
 -0.285714 -0.166667 -0.000000    0.00476190   7 t-inv F
 -0.428571 -0.166667 -0.000000    0.00476190   8 t-inv F
  0.428571 -0.166667 -0.000000    0.00476190   9 t-inv F
  0.285714 -0.166667  0.000000    0.00476190  10 t-inv F
  0.142857 -0.166667  0.000000    0.00476190  11 t-inv F
  0.000000 -0.333333 -0.000000    0.00476190  12 t-inv F
 -0.142857 -0.333333  0.000000    0.00476190  13 t-inv F
 -0.285714 -0.333333 -0.000000    0.00476190  14 t-inv F
 -0.428571 -0.333333 -0.000000    0.00476190  15 t-inv F
  0.428571 -0.333333  0.000000    0.00476190  16 t-inv F
  0.285714 -0.333333  0.000000    0.00476190  17 t-inv F
  0.142857 -0.333333  0.000000    0.00476190  18 t-inv F
 -0.142857 -0.500000  0.000000    0.00476190  20 t-inv F
 -0.285714 -0.500000 -0.000000    0.00476190  21 t-inv F
 -0.428571 -0.500000 -0.000000    0.00476190  22 t-inv F
  0.000000  0.000000 -0.200000    0.00476190  23 t-inv F
 -0.142857  0.000000 -0.200000    0.00476190  24 t-inv F
 -0.285714  0.000000 -0.200000    0.00476190  25 t-inv F
 -0.428571  0.000000 -0.200000    0.00476190  26 t-inv F
  0.428571  0.000000 -0.200000    0.00476190  27 t-inv F
  0.285714  0.000000 -0.200000    0.00476190  28 t-inv F
  0.142857  0.000000 -0.200000    0.00476190  29 t-inv F
  0.000000 -0.166667 -0.200000    0.00476190  30 t-inv F
 -0.142857 -0.166667 -0.200000    0.00476190  31 t-inv F
 -0.285714 -0.166667 -0.200000    0.00476190  32 t-inv F
 -0.428571 -0.166667 -0.200000    0.00476190  33 t-inv F
  0.428571 -0.166667 -0.200000    0.00476190  34 t-inv F
  0.285714 -0.166667 -0.200000    0.00476190  35 t-inv F
  0.142857 -0.166667 -0.200000    0.00476190  36 t-inv F
  0.000000 -0.333333 -0.200000    0.00476190  37 t-inv F
 -0.142857 -0.333333 -0.200000    0.00476190  38 t-inv F
 -0.285714 -0.333333 -0.200000    0.00476190  39 t-inv F
 -0.428571 -0.333333 -0.200000    0.00476190  40 t-inv F
  0.428571 -0.333333 -0.200000    0.00476190  41 t-inv F
  0.285714 -0.333333 -0.200000    0.00476190  42 t-inv F
  0.142857 -0.333333 -0.200000    0.00476190  43 t-inv F
  0.000000 -0.500000 -0.200000    0.00476190  44 t-inv F
 -0.142857 -0.500000 -0.200000    0.00476190  45 t-inv F
 -0.285714 -0.500000 -0.200000    0.00476190  46 t-inv F
 -0.428571 -0.500000 -0.200000    0.00476190  47 t-inv F
  0.428571 -0.500000 -0.200000    0.00476190  48 t-inv F
  0.285714 -0.500000 -0.200000    0.00476190  49 t-inv F
  0.142857 -0.500000 -0.200000    0.00476190  50 t-inv F
  0.000000  0.333333 -0.200000    0.00476190  51 t-inv F
 -0.142857  0.333333 -0.200000    0.00476190  52 t-inv F
 -0.285714  0.333333 -0.200000    0.00476190  53 t-inv F
 -0.428571  0.333333 -0.200000    0.00476190  54 t-inv F
  0.428571  0.333333 -0.200000    0.00476190  55 t-inv F
  0.285714  0.333333 -0.200000    0.00476190  56 t-inv F
  0.142857  0.333333 -0.200000    0.00476190  57 t-inv F
  0.000000  0.166667 -0.200000    0.00476190  58 t-inv F
 -0.142857  0.166667 -0.200000    0.00476190  59 t-inv F
 -0.285714  0.166667 -0.200000    0.00476190  60 t-inv F
 -0.428571  0.166667 -0.200000    0.00476190  61 t-inv F
  0.428571  0.166667 -0.200000    0.00476190  62 t-inv F
  0.285714  0.166667 -0.200000    0.00476190  63 t-inv F
  0.142857  0.166667 -0.200000    0.00476190  64 t-inv F
  0.000000  0.000000 -0.400000    0.00476190  65 t-inv F
 -0.142857  0.000000 -0.400000    0.00476190  66 t-inv F
 -0.285714  0.000000 -0.400000    0.00476190  67 t-inv F
 -0.428571  0.000000 -0.400000    0.00476190  68 t-inv F
  0.428571  0.000000 -0.400000    0.00476190  69 t-inv F
  0.285714  0.000000 -0.400000    0.00476190  70 t-inv F
  0.142857  0.000000 -0.400000    0.00476190  71 t-inv F
  0.000000 -0.166667 -0.400000    0.00476190  72 t-inv F
 -0.142857 -0.166667 -0.400000    0.00476190  73 t-inv F
 -0.285714 -0.166667 -0.400000    0.00476190  74 t-inv F
 -0.428571 -0.166667 -0.400000    0.00476190  75 t-inv F
  0.428571 -0.166667 -0.400000    0.00476190  76 t-inv F
  0.285714 -0.166667 -0.400000    0.00476190  77 t-inv F
  0.142857 -0.166667 -0.400000    0.00476190  78 t-inv F
  0.000000 -0.333333 -0.400000    0.00476190  79 t-inv F
 -0.142857 -0.333333 -0.400000    0.00476190  80 t-inv F
 -0.285714 -0.333333 -0.400000    0.00476190  81 t-inv F
 -0.428571 -0.333333 -0.400000    0.00476190  82 t-inv F
  0.428571 -0.333333 -0.400000    0.00476190  83 t-inv F
  0.285714 -0.333333 -0.400000    0.00476190  84 t-inv F
  0.142857 -0.333333 -0.400000    0.00476190  85 t-inv F
  0.000000 -0.500000 -0.400000    0.00476190  86 t-inv F
 -0.142857 -0.500000 -0.400000    0.00476190  87 t-inv F
 -0.285714 -0.500000 -0.400000    0.00476190  88 t-inv F
 -0.428571 -0.500000 -0.400000    0.00476190  89 t-inv F
  0.428571 -0.500000 -0.400000    0.00476190  90 t-inv F
  0.285714 -0.500000 -0.400000    0.00476190  91 t-inv F
  0.142857 -0.500000 -0.400000    0.00476190  92 t-inv F
  0.000000  0.333333 -0.400000    0.00476190  93 t-inv F
 -0.142857  0.333333 -0.400000    0.00476190  94 t-inv F
 -0.285714  0.333333 -0.400000    0.00476190  95 t-inv F
 -0.428571  0.333333 -0.400000    0.00476190  96 t-inv F
  0.428571  0.333333 -0.400000    0.00476190  97 t-inv F
  0.285714  0.333333 -0.400000    0.00476190  98 t-inv F
  0.142857  0.333333 -0.400000    0.00476190  99 t-inv F
  0.000000  0.166667 -0.400000    0.00476190 100 t-inv F
 -0.142857  0.166667 -0.400000    0.00476190 101 t-inv F
 -0.285714  0.166667 -0.400000    0.00476190 102 t-inv F
 -0.428571  0.166667 -0.400000    0.00476190 103 t-inv F
  0.428571  0.166667 -0.400000    0.00476190 104 t-inv F
  0.285714  0.166667 -0.400000    0.00476190 105 t-inv F
  0.142857  0.166667 -0.400000    0.00476190 106 t-inv F


--------------------------------------------------------------------------------------------------------




 Dimension of arrays:
   k-points           NKPTS =    106   k-points in BZ     NKDIM =    106   number of bands    NBANDS=     48
   number of dos      NEDOS =    301   number of ions     NIONS =     12
   non local maximal  LDIM  =      4   non local SUM 2l+1 LMDIM =      8
   total plane-waves  NPLWV =  96000
   max r-space proj   IRMAX =      1   max aug-charges    IRDMAX=  20111
   dimension x,y,z NGX =    40 NGY =   48 NGZ =   50
   dimension x,y,z NGXF=    80 NGYF=   96 NGZF=  100
   support grid    NGXF=    80 NGYF=   96 NGZF=  100
   ions per type =               2   2   8
   NGX,Y,Z   is equivalent  to a cutoff of  13.91, 14.31, 13.65 a.u.
   NGXF,Y,Z  is equivalent  to a cutoff of  27.82, 28.63, 27.29 a.u.

 SYSTEM =  unknown system                          
 POSCAR =  Generated by cif2cell 1.2.10 from COD re

 Startparameter for this run:
   NWRITE =      2    write-flag & timer
   PREC   = accura    normal or accurate (medium, high low for compatibility)
   ISTART =      0    job   : 0-new  1-cont  2-samecut
   ICHARG =      2    charge: 1-file 2-atom 10-const
   ISPIN  =      1    spin polarized calculation?
   LNONCOLLINEAR =      F non collinear calculations
   LSORBIT =      F    spin-orbit coupling
   INIWAV =      1    electr: 0-lowe 1-rand  2-diag
   LASPH  =      T    aspherical Exc in radial PAW
   METAGGA=      F    non-selfconsistent MetaGGA calc.

 Electronic Relaxation 1
   ENCUT  =  600.0 eV  44.10 Ry    6.64 a.u.   9.55 11.13 12.17*2*pi/ulx,y,z
   ENINI  =  600.0     initial cutoff
   ENAUG  =  605.4 eV  augmentation charge cutoff
   NELM   =     60;   NELMIN=  4; NELMDL= -5     # of ELM steps 
   EDIFF  = 0.5E-07   stopping-criterion for ELM
   LREAL  =      F    real-space projection
   NLSPLINE    = F    spline interpolate recip. space projectors
   LCOMPAT=      F    compatible to vasp.4.4
   GGA_COMPAT  = T    GGA compatible to vasp.4.4-vasp.4.6
   LMAXPAW     = -100 max onsite density
   LMAXMIX     =    4 max onsite mixed and CHGCAR
   VOSKOWN=      0    Vosko Wilk Nusair interpolation
   ROPT   =    0.00000   0.00000   0.00000
 Ionic relaxation
   EDIFFG = 0.5E-06   stopping-criterion for IOM
   NSW    =      1    number of steps for IOM
   NBLOCK =      1;   KBLOCK =      1    inner block; outer block 
   IBRION =     -1    ionic relax: 0-MD 1-quasi-New 2-CG
   NFREE  =      0    steps in history (QN), initial steepest desc. (CG)
   ISIF   =      3    stress and relaxation
   IWAVPR =     10    prediction:  0-non 1-charg 2-wave 3-comb
   ISYM   =      2    0-nonsym 1-usesym 2-fastsym
   LCORR  =      T    Harris-Foulkes like correction to forces

   POTIM  = 0.2000    time-step for ionic-motion
   TEIN   =    0.0    initial temperature
   TEBEG  =    0.0;   TEEND  =   0.0 temperature during run
   SMASS  =  -3.00    Nose mass-parameter (am)
   estimated Nose-frequenzy (Omega)   =  0.10E-29 period in steps =****** mass=  -0.522E-27a.u.
   SCALEE = 1.0000    scale energy and forces
   NPACO  =    256;   APACO  = 16.0  distance and # of slots for P.C.
   PSTRESS=    0.0 pullay stress

  Mass of Ions in am
   POMASS =  22.99 32.07 16.00
  Ionic Valenz
   ZVAL   =   7.00  6.00  6.00
  Atomic Wigner-Seitz radii
   RWIGS  =  -1.00 -1.00 -1.00
  virtual crystal weights 
   VCA    =   1.00  1.00  1.00
   NELECT =      74.0000    total number of electrons
   NUPDOWN=      -1.0000    fix difference up-down

 DOS related values:
   EMIN   =  10.00;   EMAX   =-10.00  energy-range for DOS
   EFERMI =   0.00
   ISMEAR =    -5;   SIGMA  =   0.05  broadening in eV -4-tet -1-fermi 0-gaus

 Electronic relaxation 2 (details)
   IALGO  =     68    algorithm
   LDIAG  =      T    sub-space diagonalisation (order eigenvalues)
   LSUBROT=      F    optimize rotation matrix (better conditioning)
   TURBO    =      0    0=normal 1=particle mesh
   IRESTART =      0    0=no restart 2=restart with 2 vectors
   NREBOOT  =      0    no. of reboots
   NMIN     =      0    reboot dimension
   EREF     =   0.00    reference energy to select bands
   IMIX   =      4    mixing-type and parameters
     AMIX     =   0.40;   BMIX     =  1.00
     AMIX_MAG =   1.60;   BMIX_MAG =  1.00
     AMIN     =   0.10
     WC   =   100.;   INIMIX=   1;  MIXPRE=   1;  MAXMIX= -45

 Intra band minimization:
   WEIMIN = 0.0000     energy-eigenvalue tresh-hold
   EBREAK =  0.26E-09  absolut break condition
   DEPER  =   0.30     relativ break condition  

   TIME   =   0.40     timestep for ELM

  volume/ion in A,a.u.               =      12.66        85.41
  Fermi-wavevector in a.u.,A,eV,Ry     =   1.288204  2.434353 22.578470  1.659471
  Thomas-Fermi vector in A             =   2.420172
 
 Write flags
   LWAVE        =      F    write WAVECAR
   LDOWNSAMPLE  =      F    k-point downsampling of WAVECAR
   LCHARG       =      F    write CHGCAR
   LVTOT        =      F    write LOCPOT, total local potential
   LVHAR        =      F    write LOCPOT, Hartree potential only
   LELF         =      F    write electronic localiz. function (ELF)
   LORBIT       =      0    0 simple, 1 ext, 2 COOP (PROOUT), +10 PAW based schemes


 Dipole corrections
   LMONO  =      F    monopole corrections only (constant potential shift)
   LDIPOL =      F    correct potential (dipole corrections)
   IDIPOL =      0    1-x, 2-y, 3-z, 4-all directions 
   EPSILON=  1.0000000 bulk dielectric constant

 Exchange correlation treatment:
   GGA     =    --    GGA type
   LEXCH   =     8    internal setting for exchange type
   VOSKOWN=      0    Vosko Wilk Nusair interpolation
   LHFCALC =     F    Hartree Fock is set to
   LHFONE  =     F    Hartree Fock one center treatment
   AEXX    =    0.0000 exact exchange contribution

 Linear response parameters
   LEPSILON=     T    determine dielectric tensor
   LRPA    =     F    only Hartree local field effects (RPA)
   LNABLA  =     F    use nabla operator in PAW spheres
   LVEL    =     F    velocity operator in full k-point grid
   LINTERFAST=   F  fast interpolation
   KINTER  =     0    interpolate to denser k-point grid
   CSHIFT  =0.1000    complex shift for real part using Kramers Kronig
   OMEGAMAX=  -1.0    maximum frequency
   DEG_THRESHOLD= 0.2000000E-02 threshold for treating states as degnerate
   RTIME   =   -0.100 relaxation time in fs
  (WPLASMAI=    0.000 imaginary part of plasma frequency in eV, 0.658/RTIME)
   DFIELD  = 0.0000000 0.0000000 0.0000000 field for delta impulse in time
 
 Orbital magnetization related:
   ORBITALMAG=     F  switch on orbital magnetization
   LCHIMAG   =     F  perturbation theory with respect to B field
   DQ        =  0.001000  dq finite difference perturbation B field
   LLRAUG    =     F  two centre corrections for induced B field



--------------------------------------------------------------------------------------------------------


 Static calculation
 charge density and potential will be updated during run
 non-spin polarized calculation
 RMM-DIIS sequential band-by-band and
  variant of blocked Davidson during initial phase
 perform sub-space diagonalisation
    before iterative eigenvector-optimisation
 modified Broyden-mixing scheme, WC =      100.0
 initial mixing is a Kerker type mixing with AMIX =  0.4000 and BMIX =      1.0000
 Hartree-type preconditioning will be used
 using additional bands           11
 reciprocal scheme for non local part
 use partial core corrections
 calculate Harris-corrections to forces 
   (improved forces if not selfconsistent)
 use gradient corrections 
 use of overlap-Matrix (Vanderbilt PP)
 Fermi weights with tetrahedron method with Bloechl corrections


--------------------------------------------------------------------------------------------------------


  energy-cutoff  :      600.00
  volume of cell :      151.88
      direct lattice vectors                 reciprocal lattice vectors
     4.780000000  0.000000000  0.000000000     0.209205021  0.027237823  0.057998201
    -0.719772266  5.528340880  0.000000000     0.000000000  0.180886096  0.045523874
    -1.405060555 -1.446482311  5.747501610     0.000000000  0.000000000  0.173988642

  length of vectors
     4.780000000  5.575000000  6.091000000     0.218797694  0.186526681  0.173988642


 
 k-points in units of 2pi/SCALE and weight: Generated by cif2cell 1.2.10. k-space re
   0.00000000  0.00000000  0.00000000       0.005
   0.14285714  0.01859954  0.03960449       0.010
   0.28571429  0.03719908  0.07920897       0.010
   0.42857143  0.05579863  0.11881346       0.010
   0.00000000  0.14410592  0.03626735       0.010
   0.14285714  0.16270547  0.07587184       0.010
   0.28571429  0.18130501  0.11547632       0.010
   0.42857143  0.19990455  0.15508081       0.010
  -0.42857143  0.08830730 -0.08254610       0.010
  -0.28571429  0.10690684 -0.04294162       0.010
  -0.14285714  0.12550638 -0.00333713       0.010
   0.00000000  0.28821185  0.07253471       0.010
   0.14285714  0.30681139  0.11213919       0.010
   0.28571429  0.32541093  0.15174368       0.010
   0.42857143  0.34401047  0.19134816       0.010
  -0.42857143  0.23241322 -0.04627875       0.010
  -0.28571429  0.25101276 -0.00667427       0.010
  -0.14285714  0.26961230  0.03293022       0.010
   0.00000000  0.43231777  0.10880206       0.005
   0.14285714  0.45091731  0.14840654       0.010
   0.28571429  0.46951685  0.18801103       0.010
   0.42857143  0.48811640  0.22761552       0.010
   0.00000000  0.00000000  0.16633314       0.010
   0.14285714  0.01859954  0.20593763       0.010
   0.28571429  0.03719908  0.24554211       0.010
   0.42857143  0.05579863  0.28514660       0.010
  -0.42857143 -0.05579863  0.04751968       0.010
  -0.28571429 -0.03719908  0.08712417       0.010
  -0.14285714 -0.01859954  0.12672866       0.010
   0.00000000  0.14410592  0.20260049       0.010
   0.14285714  0.16270547  0.24220498       0.010
   0.28571429  0.18130501  0.28180947       0.010
   0.42857143  0.19990455  0.32141395       0.010
  -0.42857143  0.08830730  0.08378704       0.010
  -0.28571429  0.10690684  0.12339152       0.010
  -0.14285714  0.12550638  0.16299601       0.010
   0.00000000  0.28821185  0.23886785       0.010
   0.14285714  0.30681139  0.27847233       0.010
   0.28571429  0.32541093  0.31807682       0.010
   0.42857143  0.34401047  0.35768130       0.010
  -0.42857143  0.23241322  0.12005439       0.010
  -0.28571429  0.25101276  0.15965888       0.010
  -0.14285714  0.26961230  0.19926336       0.010
   0.00000000  0.43231777  0.27513520       0.010
   0.14285714  0.45091731  0.31473969       0.010
   0.28571429  0.46951685  0.35434417       0.010
   0.42857143  0.48811640  0.39394866       0.010
  -0.42857143  0.37651914  0.15632174       0.010
  -0.28571429  0.39511869  0.19592623       0.010
  -0.14285714  0.41371823  0.23553071       0.010
   0.00000000 -0.28821185  0.09379844       0.010
   0.14285714 -0.26961230  0.13340292       0.010
   0.28571429 -0.25101276  0.17300741       0.010
   0.42857143 -0.23241322  0.21261189       0.010
  -0.42857143 -0.34401047 -0.02501502       0.010
  -0.28571429 -0.32541093  0.01458946       0.010
  -0.14285714 -0.30681139  0.05419395       0.010
   0.00000000 -0.14410592  0.13006579       0.010
   0.14285714 -0.12550638  0.16967027       0.010
   0.28571429 -0.10690684  0.20927476       0.010
   0.42857143 -0.08830730  0.24887925       0.010
  -0.42857143 -0.19990455  0.01125233       0.010
  -0.28571429 -0.18130501  0.05085682       0.010
  -0.14285714 -0.16270547  0.09046130       0.010
   0.00000000  0.00000000  0.33266628       0.010
   0.14285714  0.01859954  0.37227077       0.010
   0.28571429  0.03719908  0.41187525       0.010
   0.42857143  0.05579863  0.45147974       0.010
  -0.42857143 -0.05579863  0.21385283       0.010
  -0.28571429 -0.03719908  0.25345731       0.010
  -0.14285714 -0.01859954  0.29306180       0.010
   0.00000000  0.14410592  0.36893364       0.010
   0.14285714  0.16270547  0.40853812       0.010
   0.28571429  0.18130501  0.44814261       0.010
   0.42857143  0.19990455  0.48774709       0.010
  -0.42857143  0.08830730  0.25012018       0.010
  -0.28571429  0.10690684  0.28972466       0.010
  -0.14285714  0.12550638  0.32932915       0.010
   0.00000000  0.28821185  0.40520099       0.010
   0.14285714  0.30681139  0.44480547       0.010
   0.28571429  0.32541093  0.48440996       0.010
   0.42857143  0.34401047  0.52401445       0.010
  -0.42857143  0.23241322  0.28638753       0.010
  -0.28571429  0.25101276  0.32599202       0.010
  -0.14285714  0.26961230  0.36559650       0.010
   0.00000000  0.43231777  0.44146834       0.010
   0.14285714  0.45091731  0.48107283       0.010
   0.28571429  0.46951685  0.52067731       0.010
   0.42857143  0.48811640  0.56028180       0.010
  -0.42857143  0.37651914  0.32265488       0.010
  -0.28571429  0.39511869  0.36225937       0.010
  -0.14285714  0.41371823  0.40186386       0.010
   0.00000000 -0.28821185  0.26013158       0.010
   0.14285714 -0.26961230  0.29973606       0.010
   0.28571429 -0.25101276  0.33934055       0.010
   0.42857143 -0.23241322  0.37894503       0.010
  -0.42857143 -0.34401047  0.14131812       0.010
  -0.28571429 -0.32541093  0.18092261       0.010
  -0.14285714 -0.30681139  0.22052709       0.010
   0.00000000 -0.14410592  0.29639893       0.010
   0.14285714 -0.12550638  0.33600342       0.010
   0.28571429 -0.10690684  0.37560790       0.010
   0.42857143 -0.08830730  0.41521239       0.010
  -0.42857143 -0.19990455  0.17758547       0.010
  -0.28571429 -0.18130501  0.21718996       0.010
  -0.14285714 -0.16270547  0.25679444       0.010
 
 k-points in reciprocal lattice and weights: Generated by cif2cell 1.2.10. k-space re
   0.00000000  0.00000000  0.00000000       0.005
   0.14285714  0.00000000  0.00000000       0.010
   0.28571429  0.00000000  0.00000000       0.010
   0.42857143  0.00000000  0.00000000       0.010
   0.00000000  0.16666667  0.00000000       0.010
   0.14285714  0.16666667 -0.00000000       0.010
   0.28571429  0.16666667  0.00000000       0.010
   0.42857143  0.16666667  0.00000000       0.010
  -0.42857143  0.16666667  0.00000000       0.010
  -0.28571429  0.16666667 -0.00000000       0.010
  -0.14285714  0.16666667 -0.00000000       0.010
   0.00000000  0.33333333  0.00000000       0.010
   0.14285714  0.33333333  0.00000000       0.010
   0.28571429  0.33333333  0.00000000       0.010
   0.42857143  0.33333333  0.00000000       0.010
  -0.42857143  0.33333333 -0.00000000       0.010
  -0.28571429  0.33333333  0.00000000       0.010
  -0.14285714  0.33333333  0.00000000       0.010
   0.00000000  0.50000000  0.00000000       0.005
   0.14285714  0.50000000  0.00000000       0.010
   0.28571429  0.50000000  0.00000000       0.010
   0.42857143  0.50000000  0.00000000       0.010
   0.00000000  0.00000000  0.20000000       0.010
   0.14285714  0.00000000  0.20000000       0.010
   0.28571429  0.00000000  0.20000000       0.010
   0.42857143  0.00000000  0.20000000       0.010
  -0.42857143  0.00000000  0.20000000       0.010
  -0.28571429  0.00000000  0.20000000       0.010
  -0.14285714  0.00000000  0.20000000       0.010
   0.00000000  0.16666667  0.20000000       0.010
   0.14285714  0.16666667  0.20000000       0.010
   0.28571429  0.16666667  0.20000000       0.010
   0.42857143  0.16666667  0.20000000       0.010
  -0.42857143  0.16666667  0.20000000       0.010
  -0.28571429  0.16666667  0.20000000       0.010
  -0.14285714  0.16666667  0.20000000       0.010
   0.00000000  0.33333333  0.20000000       0.010
   0.14285714  0.33333333  0.20000000       0.010
   0.28571429  0.33333333  0.20000000       0.010
   0.42857143  0.33333333  0.20000000       0.010
  -0.42857143  0.33333333  0.20000000       0.010
  -0.28571429  0.33333333  0.20000000       0.010
  -0.14285714  0.33333333  0.20000000       0.010
   0.00000000  0.50000000  0.20000000       0.010
   0.14285714  0.50000000  0.20000000       0.010
   0.28571429  0.50000000  0.20000000       0.010
   0.42857143  0.50000000  0.20000000       0.010
  -0.42857143  0.50000000  0.20000000       0.010
  -0.28571429  0.50000000  0.20000000       0.010
  -0.14285714  0.50000000  0.20000000       0.010
   0.00000000 -0.33333333  0.20000000       0.010
   0.14285714 -0.33333333  0.20000000       0.010
   0.28571429 -0.33333333  0.20000000       0.010
   0.42857143 -0.33333333  0.20000000       0.010
  -0.42857143 -0.33333333  0.20000000       0.010
  -0.28571429 -0.33333333  0.20000000       0.010
  -0.14285714 -0.33333333  0.20000000       0.010
   0.00000000 -0.16666667  0.20000000       0.010
   0.14285714 -0.16666667  0.20000000       0.010
   0.28571429 -0.16666667  0.20000000       0.010
   0.42857143 -0.16666667  0.20000000       0.010
  -0.42857143 -0.16666667  0.20000000       0.010
  -0.28571429 -0.16666667  0.20000000       0.010
  -0.14285714 -0.16666667  0.20000000       0.010
   0.00000000  0.00000000  0.40000000       0.010
   0.14285714  0.00000000  0.40000000       0.010
   0.28571429  0.00000000  0.40000000       0.010
   0.42857143  0.00000000  0.40000000       0.010
  -0.42857143  0.00000000  0.40000000       0.010
  -0.28571429  0.00000000  0.40000000       0.010
  -0.14285714  0.00000000  0.40000000       0.010
   0.00000000  0.16666667  0.40000000       0.010
   0.14285714  0.16666667  0.40000000       0.010
   0.28571429  0.16666667  0.40000000       0.010
   0.42857143  0.16666667  0.40000000       0.010
  -0.42857143  0.16666667  0.40000000       0.010
  -0.28571429  0.16666667  0.40000000       0.010
  -0.14285714  0.16666667  0.40000000       0.010
   0.00000000  0.33333333  0.40000000       0.010
   0.14285714  0.33333333  0.40000000       0.010
   0.28571429  0.33333333  0.40000000       0.010
   0.42857143  0.33333333  0.40000000       0.010
  -0.42857143  0.33333333  0.40000000       0.010
  -0.28571429  0.33333333  0.40000000       0.010
  -0.14285714  0.33333333  0.40000000       0.010
   0.00000000  0.50000000  0.40000000       0.010
   0.14285714  0.50000000  0.40000000       0.010
   0.28571429  0.50000000  0.40000000       0.010
   0.42857143  0.50000000  0.40000000       0.010
  -0.42857143  0.50000000  0.40000000       0.010
  -0.28571429  0.50000000  0.40000000       0.010
  -0.14285714  0.50000000  0.40000000       0.010
   0.00000000 -0.33333333  0.40000000       0.010
   0.14285714 -0.33333333  0.40000000       0.010
   0.28571429 -0.33333333  0.40000000       0.010
   0.42857143 -0.33333333  0.40000000       0.010
  -0.42857143 -0.33333333  0.40000000       0.010
  -0.28571429 -0.33333333  0.40000000       0.010
  -0.14285714 -0.33333333  0.40000000       0.010
   0.00000000 -0.16666667  0.40000000       0.010
   0.14285714 -0.16666667  0.40000000       0.010
   0.28571429 -0.16666667  0.40000000       0.010
   0.42857143 -0.16666667  0.40000000       0.010
  -0.42857143 -0.16666667  0.40000000       0.010
  -0.28571429 -0.16666667  0.40000000       0.010
  -0.14285714 -0.16666667  0.40000000       0.010
 
 position of ions in fractional coordinates (direct lattice) 
   0.03562140  0.31434519  0.20900384
   0.96437860  0.68565481  0.79099616
   0.61219534  0.77766144  0.24484015
   0.38780466  0.22233856  0.75515985
   0.58137871  0.03862518  0.41708693
   0.41862129  0.96137482  0.58291307
   0.77367226  0.89619626  0.10823110
   0.22632774  0.10380374  0.89176890
   0.31532091  0.64828632  0.12249705
   0.68467909  0.35171368  0.87750295
   0.77308342  0.63887214  0.39250280
   0.22691658  0.36112786  0.60749720
 
 position of ions in cartesian coordinates  (Angst):
  -0.34964972  1.43548699  1.20124988
   3.00481690  2.64637158  4.54625173
   2.02253937  3.94502057  1.40721916
   0.63262781  0.13683800  4.34028245
   2.16515652 -0.38977569  2.39720782
   0.49001066  4.47163426  3.35029379
   2.90102493  4.79792405  0.62205845
  -0.24585776 -0.71606548  5.12544316
   0.86849965  3.40675796  0.70405196
   1.78666753  0.67510061  5.04344965
   2.68400610  2.96415459  2.25591049
  -0.02883892  1.11770397  3.49159112
 


--------------------------------------------------------------------------------------------------------


 k-point  1 :   0.0000 0.0000 0.0000  plane waves:    5071
 k-point  2 :   0.1429 0.0000 0.0000  plane waves:    5069
 k-point  3 :   0.2857 0.0000 0.0000  plane waves:    5065
 k-point  4 :   0.4286 0.0000 0.0000  plane waves:    5055
 k-point  5 :   0.0000 0.1667 0.0000  plane waves:    5069
 k-point  6 :   0.1429 0.1667-0.0000  plane waves:    5078
 k-point  7 :   0.2857 0.1667 0.0000  plane waves:    5070
 k-point  8 :   0.4286 0.1667 0.0000  plane waves:    5064
 k-point  9 :  -0.4286 0.1667 0.0000  plane waves:    5050
 k-point 10 :  -0.2857 0.1667-0.0000  plane waves:    5066
 k-point 11 :  -0.1429 0.1667-0.0000  plane waves:    5063
 k-point 12 :   0.0000 0.3333 0.0000  plane waves:    5076
 k-point 13 :   0.1429 0.3333 0.0000  plane waves:    5079
 k-point 14 :   0.2857 0.3333 0.0000  plane waves:    5074
 k-point 15 :   0.4286 0.3333 0.0000  plane waves:    5051
 k-point 16 :  -0.4286 0.3333-0.0000  plane waves:    5052
 k-point 17 :  -0.2857 0.3333 0.0000  plane waves:    5062
 k-point 18 :  -0.1429 0.3333 0.0000  plane waves:    5083
 k-point 19 :   0.0000 0.5000 0.0000  plane waves:    5066
 k-point 20 :   0.1429 0.5000 0.0000  plane waves:    5071
 k-point 21 :   0.2857 0.5000 0.0000  plane waves:    5088
 k-point 22 :   0.4286 0.5000 0.0000  plane waves:    5068
 k-point 23 :   0.0000 0.0000 0.2000  plane waves:    5077
 k-point 24 :   0.1429 0.0000 0.2000  plane waves:    5066
 k-point 25 :   0.2857 0.0000 0.2000  plane waves:    5056
 k-point 26 :   0.4286 0.0000 0.2000  plane waves:    5055
 k-point 27 :  -0.4286 0.0000 0.2000  plane waves:    5056
 k-point 28 :  -0.2857 0.0000 0.2000  plane waves:    5060
 k-point 29 :  -0.1429 0.0000 0.2000  plane waves:    5071
 k-point 30 :   0.0000 0.1667 0.2000  plane waves:    5073
 k-point 31 :   0.1429 0.1667 0.2000  plane waves:    5064
 k-point 32 :   0.2857 0.1667 0.2000  plane waves:    5073
 k-point 33 :   0.4286 0.1667 0.2000  plane waves:    5049
 k-point 34 :  -0.4286 0.1667 0.2000  plane waves:    5046
 k-point 35 :  -0.2857 0.1667 0.2000  plane waves:    5067
 k-point 36 :  -0.1429 0.1667 0.2000  plane waves:    5064
 k-point 37 :   0.0000 0.3333 0.2000  plane waves:    5080
 k-point 38 :   0.1429 0.3333 0.2000  plane waves:    5073
 k-point 39 :   0.2857 0.3333 0.2000  plane waves:    5063
 k-point 40 :   0.4286 0.3333 0.2000  plane waves:    5042
 k-point 41 :  -0.4286 0.3333 0.2000  plane waves:    5057
 k-point 42 :  -0.2857 0.3333 0.2000  plane waves:    5078
 k-point 43 :  -0.1429 0.3333 0.2000  plane waves:    5062
 k-point 44 :   0.0000 0.5000 0.2000  plane waves:    5075
 k-point 45 :   0.1429 0.5000 0.2000  plane waves:    5076
 k-point 46 :   0.2857 0.5000 0.2000  plane waves:    5059
 k-point 47 :   0.4286 0.5000 0.2000  plane waves:    5055
 k-point 48 :  -0.4286 0.5000 0.2000  plane waves:    5070
 k-point 49 :  -0.2857 0.5000 0.2000  plane waves:    5084
 k-point 50 :  -0.1429 0.5000 0.2000  plane waves:    5068
 k-point 51 :   0.0000-0.3333 0.2000  plane waves:    5084
 k-point 52 :   0.1429-0.3333 0.2000  plane waves:    5075
 k-point 53 :   0.2857-0.3333 0.2000  plane waves:    5057
 k-point 54 :   0.4286-0.3333 0.2000  plane waves:    5070
 k-point 55 :  -0.4286-0.3333 0.2000  plane waves:    5069
 k-point 56 :  -0.2857-0.3333 0.2000  plane waves:    5076
 k-point 57 :  -0.1429-0.3333 0.2000  plane waves:    5083
 k-point 58 :   0.0000-0.1667 0.2000  plane waves:    5069
 k-point 59 :   0.1429-0.1667 0.2000  plane waves:    5064
 k-point 60 :   0.2857-0.1667 0.2000  plane waves:    5063
 k-point 61 :   0.4286-0.1667 0.2000  plane waves:    5044
 k-point 62 :  -0.4286-0.1667 0.2000  plane waves:    5059
 k-point 63 :  -0.2857-0.1667 0.2000  plane waves:    5064
 k-point 64 :  -0.1429-0.1667 0.2000  plane waves:    5080
 k-point 65 :   0.0000 0.0000 0.4000  plane waves:    5086
 k-point 66 :   0.1429 0.0000 0.4000  plane waves:    5077
 k-point 67 :   0.2857 0.0000 0.4000  plane waves:    5052
 k-point 68 :   0.4286 0.0000 0.4000  plane waves:    5054
 k-point 69 :  -0.4286 0.0000 0.4000  plane waves:    5055
 k-point 70 :  -0.2857 0.0000 0.4000  plane waves:    5067
 k-point 71 :  -0.1429 0.0000 0.4000  plane waves:    5078
 k-point 72 :   0.0000 0.1667 0.4000  plane waves:    5078
 k-point 73 :   0.1429 0.1667 0.4000  plane waves:    5085
 k-point 74 :   0.2857 0.1667 0.4000  plane waves:    5072
 k-point 75 :   0.4286 0.1667 0.4000  plane waves:    5057
 k-point 76 :  -0.4286 0.1667 0.4000  plane waves:    5059
 k-point 77 :  -0.2857 0.1667 0.4000  plane waves:    5059
 k-point 78 :  -0.1429 0.1667 0.4000  plane waves:    5085
 k-point 79 :   0.0000 0.3333 0.4000  plane waves:    5060
 k-point 80 :   0.1429 0.3333 0.4000  plane waves:    5066
 k-point 81 :   0.2857 0.3333 0.4000  plane waves:    5059
 k-point 82 :   0.4286 0.3333 0.4000  plane waves:    5064
 k-point 83 :  -0.4286 0.3333 0.4000  plane waves:    5088
 k-point 84 :  -0.2857 0.3333 0.4000  plane waves:    5082
 k-point 85 :  -0.1429 0.3333 0.4000  plane waves:    5077
 k-point 86 :   0.0000 0.5000 0.4000  plane waves:    5072
 k-point 87 :   0.1429 0.5000 0.4000  plane waves:    5076
 k-point 88 :   0.2857 0.5000 0.4000  plane waves:    5056
 k-point 89 :   0.4286 0.5000 0.4000  plane waves:    5075
 k-point 90 :  -0.4286 0.5000 0.4000  plane waves:    5073
 k-point 91 :  -0.2857 0.5000 0.4000  plane waves:    5082
 k-point 92 :  -0.1429 0.5000 0.4000  plane waves:    5082
 k-point 93 :   0.0000-0.3333 0.4000  plane waves:    5078
 k-point 94 :   0.1429-0.3333 0.4000  plane waves:    5076
 k-point 95 :   0.2857-0.3333 0.4000  plane waves:    5077
 k-point 96 :   0.4286-0.3333 0.4000  plane waves:    5078
 k-point 97 :  -0.4286-0.3333 0.4000  plane waves:    5069
 k-point 98 :  -0.2857-0.3333 0.4000  plane waves:    5076
 k-point 99 :  -0.1429-0.3333 0.4000  plane waves:    5083
 k-point ** :   0.0000-0.1667 0.4000  plane waves:    5070
 k-point ** :   0.1429-0.1667 0.4000  plane waves:    5069
 k-point ** :   0.2857-0.1667 0.4000  plane waves:    5067
 k-point ** :   0.4286-0.1667 0.4000  plane waves:    5048
 k-point ** :  -0.4286-0.1667 0.4000  plane waves:    5063
 k-point ** :  -0.2857-0.1667 0.4000  plane waves:    5072
 k-point ** :  -0.1429-0.1667 0.4000  plane waves:    5079

 maximum and minimum number of plane-waves per node :      5088     5042

 maximum number of plane-waves:      5088
 maximum index in each direction: 
   IXMAX=    9   IYMAX=   11   IZMAX=   12
   IXMIN=   -9   IYMIN=  -11   IZMIN=  -12


 serial   3D FFT for wavefunctions
 parallel 3D FFT for charge:
    minimum data exchange during FFTs selected (reduces bandwidth)


 total amount of memory used by VASP MPI-rank0   160172. kBytes
=======================================================================

   base      :      30000. kBytes
   nonl-proj :     104527. kBytes
   fftplans  :       1660. kBytes
   grid      :       6365. kBytes
   one-center:         36. kBytes
   wavefun   :      17584. kBytes
 
     INWAV:  cpu time    0.0000: real time    0.0002
 Broyden mixing: mesh for mixing (old mesh)
   NGX = 19   NGY = 23   NGZ = 25
  (NGX  = 80   NGY  = 96   NGZ  =100)
  gives a total of  10925 points

 initial charge density was supplied:
 charge density of overlapping atoms calculated
 number of electron      74.0000000 magnetization 
 keeping initial charge density in first step


--------------------------------------------------------------------------------------------------------


 Maximum index for augmentation-charges         1456 (set IRDMAX)


--------------------------------------------------------------------------------------------------------


 First call to EWALD:  gamma=   0.332
 Maximum number of real-space cells 3x 3x 3
 Maximum number of reciprocal cells 3x 3x 3

    FEWALD:  cpu time    0.0014: real time    0.0014


--------------------------------------- Iteration      1(   1)  ---------------------------------------


    POTLOK:  cpu time    0.0260: real time    0.0271
    SETDIJ:  cpu time    0.0562: real time    0.0563
     EDDAV:  cpu time    5.4393: real time    5.4776
 BZINTS: Fermi energy: 18.211930; 74.000000 electrons
         Band energy: -53.985431;  BLOECHL correction: -0.154420
       DOS:  cpu time    0.0506: real time    0.0506
    --------------------------------------------
      LOOP:  cpu time    5.5721: real time    5.6117

 eigenvalue-minimisations  : 10176
 total energy-change (2. order) : 0.6669159E+03  (-0.4525496E+04)
 number of electron      74.0000000 magnetization 
 augmentation part       74.0000000 magnetization 

 Free energy of the ion-electron system (eV)
  ---------------------------------------------------
  alpha Z        PSCENC =       157.22874361
  Ewald energy   TEWEN  =     -3385.59921448
  -Hartree energ DENC   =     -1709.99521564
  -exchange      EXHF   =         0.00000000
  -V(xc)+E(xc)   XCENC  =       299.79693165
  PAW double counting   =      4212.05979638    -4397.21421078
  entropy T*S    EENTRO =         0.00000000
  eigenvalues    EBANDS =       -53.98543138
  atomic energy  EATOM  =      5544.62445944
  Solvation  Ediel_sol  =         0.00000000
  ---------------------------------------------------
  free energy    TOTEN  =       666.91585878 eV

  energy without entropy =      666.91585878  energy(sigma->0) =      666.91585878


--------------------------------------------------------------------------------------------------------




--------------------------------------- Iteration      1(   2)  ---------------------------------------


     EDDAV:  cpu time    6.3394: real time    6.3960
 BZINTS: Fermi energy:  0.668731; 74.000000 electrons
         Band energy:-761.015962;  BLOECHL correction:  0.000000
       DOS:  cpu time    0.0120: real time    0.0120
    --------------------------------------------
      LOOP:  cpu time    6.3514: real time    6.4080

 eigenvalue-minimisations  : 12720
 total energy-change (2. order) :-0.7070305E+03  (-0.6999323E+03)
 number of electron      74.0000000 magnetization 
 augmentation part       74.0000000 magnetization 

 Free energy of the ion-electron system (eV)
  ---------------------------------------------------
  alpha Z        PSCENC =       157.22874361
  Ewald energy   TEWEN  =     -3385.59921448
  -Hartree energ DENC   =     -1709.99521564
  -exchange      EXHF   =         0.00000000
  -V(xc)+E(xc)   XCENC  =       299.79693165
  PAW double counting   =      4212.05979638    -4397.21421078
  entropy T*S    EENTRO =         0.00000000
  eigenvalues    EBANDS =      -761.01596218
  atomic energy  EATOM  =      5544.62445944
  Solvation  Ediel_sol  =         0.00000000
  ---------------------------------------------------
  free energy    TOTEN  =       -40.11467201 eV

  energy without entropy =      -40.11467201  energy(sigma->0) =      -40.11467201


--------------------------------------------------------------------------------------------------------




--------------------------------------- Iteration      1(   3)  ---------------------------------------


     EDDAV:  cpu time    7.4455: real time    7.5027
 BZINTS: Fermi energy: -0.433467; 74.000000 electrons
         Band energy:-798.078809;  BLOECHL correction:  0.000000
       DOS:  cpu time    0.0086: real time    0.0086
    --------------------------------------------
      LOOP:  cpu time    7.4541: real time    7.5114

 eigenvalue-minimisations  : 14880
 total energy-change (2. order) :-0.3706285E+02  (-0.3697890E+02)
 number of electron      74.0000000 magnetization 
 augmentation part       74.0000000 magnetization 

 Free energy of the ion-electron system (eV)
  ---------------------------------------------------
  alpha Z        PSCENC =       157.22874361
  Ewald energy   TEWEN  =     -3385.59921448
  -Hartree energ DENC   =     -1709.99521564
  -exchange      EXHF   =         0.00000000
  -V(xc)+E(xc)   XCENC  =       299.79693165
  PAW double counting   =      4212.05979638    -4397.21421078
  entropy T*S    EENTRO =         0.00000000
  eigenvalues    EBANDS =      -798.07880889
  atomic energy  EATOM  =      5544.62445944
  Solvation  Ediel_sol  =         0.00000000
  ---------------------------------------------------
  free energy    TOTEN  =       -77.17751873 eV

  energy without entropy =      -77.17751873  energy(sigma->0) =      -77.17751873


--------------------------------------------------------------------------------------------------------




--------------------------------------- Iteration      1(   4)  ---------------------------------------


     EDDAV:  cpu time    5.9619: real time    6.0073
 BZINTS: Fermi energy: -0.435408; 74.000000 electrons
         Band energy:-798.524324;  BLOECHL correction:  0.000000
       DOS:  cpu time    0.0087: real time    0.0087
    --------------------------------------------
      LOOP:  cpu time    5.9706: real time    6.0159

 eigenvalue-minimisations  : 11664
 total energy-change (2. order) :-0.4455148E+00  (-0.4453907E+00)
 number of electron      74.0000000 magnetization 
 augmentation part       74.0000000 magnetization 

 Free energy of the ion-electron system (eV)
  ---------------------------------------------------
  alpha Z        PSCENC =       157.22874361
  Ewald energy   TEWEN  =     -3385.59921448
  -Hartree energ DENC   =     -1709.99521564
  -exchange      EXHF   =         0.00000000
  -V(xc)+E(xc)   XCENC  =       299.79693165
  PAW double counting   =      4212.05979638    -4397.21421078
  entropy T*S    EENTRO =         0.00000000
  eigenvalues    EBANDS =      -798.52432373
  atomic energy  EATOM  =      5544.62445944
  Solvation  Ediel_sol  =         0.00000000
  ---------------------------------------------------
  free energy    TOTEN  =       -77.62303357 eV

  energy without entropy =      -77.62303357  energy(sigma->0) =      -77.62303357


--------------------------------------------------------------------------------------------------------




--------------------------------------- Iteration      1(   5)  ---------------------------------------


     EDDAV:  cpu time    7.4807: real time    7.7413
 BZINTS: Fermi energy: -0.456647; 74.000000 electrons
         Band energy:-798.533657;  BLOECHL correction:  0.000000
       DOS:  cpu time    0.0072: real time    0.0072
    CHARGE:  cpu time    0.3150: real time    0.3151
    MIXING:  cpu time    0.0007: real time    0.0007
    --------------------------------------------
      LOOP:  cpu time    7.8036: real time    8.0643

 eigenvalue-minimisations  : 14808
 total energy-change (2. order) :-0.9333552E-02  (-0.9329974E-02)
 number of electron      74.0000002 magnetization 
 augmentation part       13.6164675 magnetization 

 Broyden mixing:
  rms(total) = 0.60644E+01    rms(broyden)= 0.60643E+01
  rms(prec ) = 0.67361E+01
  weight for this iteration     100.00

 Free energy of the ion-electron system (eV)
  ---------------------------------------------------
  alpha Z        PSCENC =       157.22874361
  Ewald energy   TEWEN  =     -3385.59921448
  -Hartree energ DENC   =     -1709.99521564
  -exchange      EXHF   =         0.00000000
  -V(xc)+E(xc)   XCENC  =       299.79693165
  PAW double counting   =      4212.05979638    -4397.21421078
  entropy T*S    EENTRO =         0.00000000
  eigenvalues    EBANDS =      -798.53365728
  atomic energy  EATOM  =      5544.62445944
  Solvation  Ediel_sol  =         0.00000000
  ---------------------------------------------------
  free energy    TOTEN  =       -77.63236712 eV

  energy without entropy =      -77.63236712  energy(sigma->0) =      -77.63236712


--------------------------------------------------------------------------------------------------------




--------------------------------------- Iteration      1(   6)  ---------------------------------------


    POTLOK:  cpu time    0.0211: real time    0.0213
    SETDIJ:  cpu time    0.0563: real time    0.0563
    EDDIAG:  cpu time    1.4105: real time    1.4267
  RMM-DIIS:  cpu time    3.8776: real time    3.9048
    ORTHCH:  cpu time    0.1333: real time    0.1394
 BZINTS: Fermi energy:  0.093494; 74.000000 electrons
         Band energy:-718.090939;  BLOECHL correction:  0.000000
       DOS:  cpu time    0.0071: real time    0.0071
    CHARGE:  cpu time    0.3193: real time    0.3194
    MIXING:  cpu time    0.0009: real time    0.0009
    --------------------------------------------
      LOOP:  cpu time    5.8261: real time    5.8759

 eigenvalue-minimisations  : 11355
 total energy-change (2. order) : 0.9053880E+01  (-0.4470350E+01)
 number of electron      74.0000003 magnetization 
 augmentation part       12.5794690 magnetization 

 Broyden mixing:
  rms(total) = 0.29003E+01    rms(broyden)= 0.29002E+01
  rms(prec ) = 0.29576E+01
  weight for this iteration     100.00

 eigenvalues of (default mixing * dielectric matrix)
  average eigenvalue GAMMA=   1.6758
  1.6758

 Free energy of the ion-electron system (eV)
  ---------------------------------------------------
  alpha Z        PSCENC =       157.22874361
  Ewald energy   TEWEN  =     -3385.59921448
  -Hartree energ DENC   =     -1786.45117580
  -exchange      EXHF   =         0.00000000
  -V(xc)+E(xc)   XCENC  =       306.24756393
  PAW double counting   =      6740.94682100    -6927.48474671
  entropy T*S    EENTRO =         0.00000000
  eigenvalues    EBANDS =      -718.09093854
  atomic energy  EATOM  =      5544.62445944
  Solvation  Ediel_sol  =         0.00000000
  ---------------------------------------------------
  free energy    TOTEN  =       -68.57848756 eV

  energy without entropy =      -68.57848756  energy(sigma->0) =      -68.57848756


--------------------------------------------------------------------------------------------------------




--------------------------------------- Iteration      1(   7)  ---------------------------------------


    POTLOK:  cpu time    0.0206: real time    0.0209
    SETDIJ:  cpu time    0.0561: real time    0.0561
    EDDIAG:  cpu time    1.4140: real time    1.4245
  RMM-DIIS:  cpu time    5.1832: real time    5.2231
    ORTHCH:  cpu time    0.1455: real time    0.1456
 BZINTS: Fermi energy:  0.440414; 74.000000 electrons
         Band energy:-709.885215;  BLOECHL correction:  0.000000
       DOS:  cpu time    0.0072: real time    0.0072
    CHARGE:  cpu time    0.3127: real time    0.3128
    MIXING:  cpu time    0.0008: real time    0.0008
    --------------------------------------------
      LOOP:  cpu time    7.1401: real time    7.1910

 eigenvalue-minimisations  : 14769
 total energy-change (2. order) : 0.9823756E+00  (-0.2056078E+00)
 number of electron      74.0000003 magnetization 
 augmentation part       12.4802690 magnetization 

 Broyden mixing:
  rms(total) = 0.11561E+01    rms(broyden)= 0.11561E+01
  rms(prec ) = 0.11853E+01
  weight for this iteration     100.00

 eigenvalues of (default mixing * dielectric matrix)
  average eigenvalue GAMMA=   1.6824
  1.0206  2.3443

 Free energy of the ion-electron system (eV)
  ---------------------------------------------------
  alpha Z        PSCENC =       157.22874361
  Ewald energy   TEWEN  =     -3385.59921448
  -Hartree energ DENC   =     -1794.25176561
  -exchange      EXHF   =         0.00000000
  -V(xc)+E(xc)   XCENC  =       307.08221594
  PAW double counting   =      9474.65980175    -9661.45513787
  entropy T*S    EENTRO =         0.00000000
  eigenvalues    EBANDS =      -709.88521476
  atomic energy  EATOM  =      5544.62445944
  Solvation  Ediel_sol  =         0.00000000
  ---------------------------------------------------
  free energy    TOTEN  =       -67.59611200 eV

  energy without entropy =      -67.59611200  energy(sigma->0) =      -67.59611200


--------------------------------------------------------------------------------------------------------




--------------------------------------- Iteration      1(   8)  ---------------------------------------


    POTLOK:  cpu time    0.0217: real time    0.0219
    SETDIJ:  cpu time    0.0559: real time    0.0559
    EDDIAG:  cpu time    1.6778: real time    1.6999
  RMM-DIIS:  cpu time    4.5399: real time    4.5679
    ORTHCH:  cpu time    0.1323: real time    0.1324
 BZINTS: Fermi energy:  0.384642; 74.000000 electrons
         Band energy:-708.360862;  BLOECHL correction:  0.000000
       DOS:  cpu time    0.0071: real time    0.0071
    CHARGE:  cpu time    0.3800: real time    0.3862
    MIXING:  cpu time    0.0008: real time    0.0008
    --------------------------------------------
      LOOP:  cpu time    6.8154: real time    6.8720

 eigenvalue-minimisations  : 12743
 total energy-change (2. order) : 0.2868257E-01  (-0.2241276E-01)
 number of electron      74.0000003 magnetization 
[...]
      LOOP:  cpu time    7.2300: real time    7.2313

 Broyden mixing:
  rms(total) = 0.32100E-03    rms(broyden)= 0.32087E-03
  rms(prec ) = 0.53478E-03
  weight for this iteration     100.00

 eigenvalues of (default mixing * dielectric matrix)
  average eigenvalue GAMMA=   1.4614
  2.7172  2.3711  1.5352  0.7167  1.0074  1.0074  0.8747

 Free energy of the ion-electron system (eV)
  ---------------------------------------------------
  -Hartree energ DENC   =        -0.13144985
  -V(xc)+E(xc)   XCENC  =         0.00319256
  PAW double counting   =         0.37320768       -0.37510064
  entropy T*S    EENTRO =         0.00000000
  eigenvalues    EBANDS =        -0.59393139
  ---------------------------------------------------
  free energy    TOTEN  =        -0.72408164 eV

  energy without entropy =       -0.72408164


----------------------------------------- Iteration    3(  10)  ---------------------------------------


   POT+DIJ:  cpu time    0.1606: real time    0.1607
    HAMIL1:  cpu time    1.0711: real time    1.0712
    LRDIAG:  cpu time    0.3419: real time    0.3419
    LRDIIS:  cpu time    5.1393: real time    5.1401
    LRDIAG:  cpu time    0.3336: real time    0.3338
    MIXING:  cpu time    0.0009: real time    0.0009
    --------------------------------------------
      LOOP:  cpu time    7.6710: real time    7.6722

 Broyden mixing:
  rms(total) = 0.12537E-03    rms(broyden)= 0.12537E-03
  rms(prec ) = 0.20847E-03
  weight for this iteration     100.00

 eigenvalues of (default mixing * dielectric matrix)
  average eigenvalue GAMMA=   1.5594
  2.8927  2.2377  2.2377  1.5388  0.7167  0.9946  0.9946  0.8622

 Free energy of the ion-electron system (eV)
  ---------------------------------------------------
  -Hartree energ DENC   =        -0.13152725
  -V(xc)+E(xc)   XCENC  =         0.00319345
  PAW double counting   =         0.37318969       -0.37508452
  entropy T*S    EENTRO =         0.00000000
  eigenvalues    EBANDS =        -0.59387019
  ---------------------------------------------------
  free energy    TOTEN  =        -0.72409882 eV

  energy without entropy =       -0.72409882


----------------------------------------- Iteration    3(  11)  ---------------------------------------


   POT+DIJ:  cpu time    0.1537: real time    0.1539
    HAMIL1:  cpu time    1.0746: real time    1.0747
    LRDIAG:  cpu time    0.3461: real time    0.3461
    LRDIIS:  cpu time    4.6631: real time    4.6640
    LRDIAG:  cpu time    0.3442: real time    0.3442
    MIXING:  cpu time    0.0010: real time    0.0010
    --------------------------------------------
      LOOP:  cpu time    7.2051: real time    7.2066

 Broyden mixing:
  rms(total) = 0.41804E-04    rms(broyden)= 0.41799E-04
  rms(prec ) = 0.71415E-04
  weight for this iteration     100.00

 eigenvalues of (default mixing * dielectric matrix)
  average eigenvalue GAMMA=   1.5302
  2.9882  2.3413  1.9998  1.4235  1.4235  0.7166  0.8938  0.9925  0.9925

 Free energy of the ion-electron system (eV)
  ---------------------------------------------------
  -Hartree energ DENC   =        -0.13155728
  -V(xc)+E(xc)   XCENC  =         0.00319435
  PAW double counting   =         0.37315826       -0.37505363
  entropy T*S    EENTRO =         0.00000000
  eigenvalues    EBANDS =        -0.59385806
  ---------------------------------------------------
  free energy    TOTEN  =        -0.72411636 eV

  energy without entropy =       -0.72411636


----------------------------------------- Iteration    3(  12)  ---------------------------------------


   POT+DIJ:  cpu time    0.1539: real time    0.1539
    HAMIL1:  cpu time    1.0773: real time    1.0775
    LRDIAG:  cpu time    0.3475: real time    0.3475
    LRDIIS:  cpu time    5.5247: real time    5.5255
    LRDIAG:  cpu time    0.3446: real time    0.3447
    MIXING:  cpu time    0.0012: real time    0.0012
    --------------------------------------------
      LOOP:  cpu time    8.0701: real time    8.0714

 Broyden mixing:
  rms(total) = 0.28170E-04    rms(broyden)= 0.28167E-04
  rms(prec ) = 0.40868E-04
  weight for this iteration     100.00

 eigenvalues of (default mixing * dielectric matrix)
  average eigenvalue GAMMA=   1.5727
  3.0853  2.3807  2.3807  1.8792  1.2251  1.2251  0.7164  1.0114  0.9117  0.9117

 Free energy of the ion-electron system (eV)
  ---------------------------------------------------
  -Hartree energ DENC   =        -0.13154055
  -V(xc)+E(xc)   XCENC  =         0.00319420
  PAW double counting   =         0.37313068       -0.37502587
  entropy T*S    EENTRO =         0.00000000
  eigenvalues    EBANDS =        -0.59387322
  ---------------------------------------------------
  free energy    TOTEN  =        -0.72411476 eV

  energy without entropy =       -0.72411476


----------------------------------------- Iteration    3(  13)  ---------------------------------------


   POT+DIJ:  cpu time    0.1530: real time    0.1531
    HAMIL1:  cpu time    1.0735: real time    1.0737
    LRDIAG:  cpu time    0.3443: real time    0.3444
    LRDIIS:  cpu time    4.7552: real time    4.7559
    LRDIAG:  cpu time    0.3297: real time    0.3297
    MIXING:  cpu time    0.0010: real time    0.0010
    --------------------------------------------
      LOOP:  cpu time    7.2822: real time    7.2836

 Broyden mixing:
  rms(total) = 0.62517E-05    rms(broyden)= 0.62506E-05
  rms(prec ) = 0.98232E-05
  weight for this iteration     100.00

 eigenvalues of (default mixing * dielectric matrix)
  average eigenvalue GAMMA=   1.5590
  2.9949  2.7467  2.2702  1.9721  1.4080  0.7164  1.1903  0.9423  0.9423  0.9829
  0.9829

 Free energy of the ion-electron system (eV)
  ---------------------------------------------------
  -Hartree energ DENC   =        -0.13153826
  -V(xc)+E(xc)   XCENC  =         0.00319408
  PAW double counting   =         0.37323371       -0.37512905
  entropy T*S    EENTRO =         0.00000000
  eigenvalues    EBANDS =        -0.59387243
  ---------------------------------------------------
  free energy    TOTEN  =        -0.72411195 eV

  energy without entropy =       -0.72411195


----------------------------------------- Iteration    3(  14)  ---------------------------------------


   POT+DIJ:  cpu time    0.1530: real time    0.1530
    HAMIL1:  cpu time    1.0616: real time    1.0617
    LRDIAG:  cpu time    0.3362: real time    0.3363
    LRDIIS:  cpu time    4.5325: real time    4.5332
    LRDIAG:  cpu time    0.3376: real time    0.3376
    MIXING:  cpu time    0.0010: real time    0.0010
    --------------------------------------------
      LOOP:  cpu time    7.0491: real time    7.0502

 Broyden mixing:
  rms(total) = 0.28201E-05    rms(broyden)= 0.28200E-05
  rms(prec ) = 0.44947E-05
  weight for this iteration     100.00

 eigenvalues of (default mixing * dielectric matrix)
  average eigenvalue GAMMA=   1.5676
  3.0893  2.7673  2.2889  1.8473  1.8473  1.2892  0.7164  1.0921  1.0921  0.8867
  0.9475  0.9475

 Free energy of the ion-electron system (eV)
  ---------------------------------------------------
  -Hartree energ DENC   =        -0.13153852
  -V(xc)+E(xc)   XCENC  =         0.00319406
  PAW double counting   =         0.37325051       -0.37514590
  entropy T*S    EENTRO =         0.00000000
  eigenvalues    EBANDS =        -0.59387145
  ---------------------------------------------------
  free energy    TOTEN  =        -0.72411131 eV

  energy without entropy =       -0.72411131


----------------------------------------- Iteration    3(  15)  ---------------------------------------


   POT+DIJ:  cpu time    0.1529: real time    0.1529
    HAMIL1:  cpu time    1.0584: real time    1.0586
    LRDIAG:  cpu time    0.3333: real time    0.3333
    LRDIIS:  cpu time    4.4108: real time    4.4112
    LRDIAG:  cpu time    0.3411: real time    0.3411
    MIXING:  cpu time    0.0011: real time    0.0011
    --------------------------------------------
      LOOP:  cpu time    6.9230: real time    6.9240

 Broyden mixing:
  rms(total) = 0.81151E-06    rms(broyden)= 0.81134E-06
  rms(prec ) = 0.12011E-05
  weight for this iteration     100.00

 eigenvalues of (default mixing * dielectric matrix)
  average eigenvalue GAMMA=   1.5926
  3.0892  2.8737  2.4381  1.9922  1.9922  1.5052  0.7164  1.0982  0.9075  0.9653
  0.9653  1.0803  1.0803

 Free energy of the ion-electron system (eV)
  ---------------------------------------------------
  -Hartree energ DENC   =        -0.13153857
  -V(xc)+E(xc)   XCENC  =         0.00319406
  PAW double counting   =         0.37325422       -0.37514959
  entropy T*S    EENTRO =         0.00000000
  eigenvalues    EBANDS =        -0.59387162
  ---------------------------------------------------
  free energy    TOTEN  =        -0.72411150 eV

  energy without entropy =       -0.72411150


------------------------ aborting loop because EDIFF is reached ----------------------------------------


 change of polarisation eV/A/(eV/A) component  3 :    -0.201     0.073     1.321
 dielectric tensor                  component  3 :    -0.239     0.087     2.574


--------------------------------------------------------------------------------------------------------


    FORLOC:  cpu time    0.0058: real time    0.0059
    FORNL :  cpu time    0.6327: real time    0.6327
    STRESS:  cpu time    4.0387: real time    4.0392
    FORCOR:  cpu time    0.0226: real time    0.0226
    OFIELD:  cpu time    0.0001: real time    0.0001
    FORLOC:  cpu time    0.0053: real time    0.0054
    FORNL :  cpu time    0.6329: real time    0.6331
    STRESS:  cpu time    4.0368: real time    4.0374
    FORCOR:  cpu time    0.0222: real time    0.0222
    OFIELD:  cpu time    0.0001: real time    0.0001
    FORNLD:  cpu time    2.6046: real time    2.6051

 PIEZOELECTRIC TENSOR FIELD DIRECTION 3  (e Angst)
 -----------------------------------------------------------------------------
     0.00334  0.00149 -0.00049           ( -0.00001  0.00000 -0.00000)
     0.00149 -0.00252  0.00168           (  0.00000 -0.00000  0.00000)
    -0.00047  0.00169 -0.00013           ( -0.00000  0.00000  0.00000)

 PIEZOELECTRIC TENSOR FIELD DIRECTION 3  (C/m^2)
 -----------------------------------------------------------------------------
     0.00035  0.00016 -0.00005
     0.00016 -0.00027  0.00018
    -0.00005  0.00018 -0.00001


      POSITION         DIRECTION 3           BORN EFFECTIVE CHARGE    (rigid.aug.   ionic)
 -----------------------------------------------------------------------------------------
     -0.34965      1.43549      1.20125    -0.01517 -0.04885  1.19217 ( -4.47981  7.00000)
      3.00482      2.64637      4.54625    -0.01517 -0.04892  1.19216 ( -4.47981  7.00000)
      2.02254      3.94502      1.40722     0.13334  0.73343  3.27883 (  0.72570  6.00000)
      0.63263      0.13684      4.34028     0.13325  0.73335  3.27882 (  0.72570  6.00000)
      2.16516     -0.38978      2.39721     0.15599 -0.59516 -0.74947 ( -0.58357  6.00000)
      0.49001      4.47163      3.35029     0.15630 -0.59511 -0.74980 ( -0.58357  6.00000)
      2.90102      4.79792      0.62206     0.42149  0.13470 -1.29614 ( -0.63794  6.00000)
     -0.24586     -0.71607      5.12544     0.42126  0.13439 -1.29624 ( -0.63794  6.00000)
      0.86850      3.40676      0.70405    -0.51779 -0.38602 -1.25888 ( -0.64176  6.00000)
      1.78667      0.67510      5.04345    -0.51771 -0.38595 -1.25856 ( -0.64176  6.00000)
      2.68401      2.96415      2.25591    -0.18152  0.16014 -1.16013 ( -0.63893  6.00000)
     -0.02884      1.11770      3.49159    -0.18141  0.15983 -1.15999 ( -0.63893  6.00000)
 -----------------------------------------------------------------------------------------
    total drift (improves with k-points):  -0.00713 -0.00417  0.01277




--------------------------------------------------------------------------------------------------------


  LATTYP: Found a triclinic cell.
 ALAT       =     6.8202860714
 B/A-ratio  =     0.8930710437
 C/A-ratio  =     1.1433654942
 COS(alpha) =     0.0056662097
 COS(beta)  =     0.4993509142
 COS(gamma) =     0.7314001840
  
  Lattice vectors:
  
 A1 = (   3.3749394452,  -1.4464823106,   5.7475016105)
 A2 = (  -1.4050605548,  -1.4464823106,   5.7475016105)
 A3 = (   5.4997722659,  -5.5283408800,   0.0000000000)


Analysis of symmetry for initial positions (statically):
=====================================================================
 Subroutine PRICEL returns:
 Original cell was already a primitive cell.
 

 Routine SETGRP: Setting up the symmetry group for a 
 triclinic supercell.


 Subroutine GETGRP returns: Found  2 space group operations
 (whereof  2 operations were pure point group operations)
 out of a pool of  2 trial point group operations.


The static configuration has the point symmetry S_2 .


Analysis of symmetry for dynamics (positions and initial velocities):
=====================================================================
 Subroutine PRICEL returns:
 Original cell was already a primitive cell.
 

 Routine SETGRP: Setting up the symmetry group for a 
 triclinic supercell.


 Subroutine GETGRP returns: Found  2 space group operations
 (whereof  2 operations were pure point group operations)
 out of a pool of  2 trial point group operations.


The dynamic configuration has the point symmetry S_2 .


 Subroutine INISYM returns: Found  2 space group operations
 (whereof  2 operations are pure point group operations),
 and found     1 'primitive' translations



 MACROSCOPIC STATIC DIELECTRIC TENSOR (including local field effects in DFT)
 ------------------------------------------------------
           2.441540    -0.046145    -0.239451
          -0.046145     2.289335     0.087339
          -0.239452     0.087340     2.573718
 ------------------------------------------------------



--------------------------------------------------------------------------------------------------------


  LATTYP: Found a triclinic cell.
 ALAT       =     6.8202860714
 B/A-ratio  =     0.8930710437
 C/A-ratio  =     1.1433654942
 COS(alpha) =     0.0056662097
 COS(beta)  =     0.4993509142
 COS(gamma) =     0.7314001840
  
  Lattice vectors:
  
 A1 = (   3.3749394452,  -1.4464823106,   5.7475016105)
 A2 = (  -1.4050605548,  -1.4464823106,   5.7475016105)
 A3 = (   5.4997722659,  -5.5283408800,   0.0000000000)


Analysis of symmetry for initial positions (statically):
=====================================================================
 Subroutine PRICEL returns:
 Original cell was already a primitive cell.
 

 Routine SETGRP: Setting up the symmetry group for a 
 triclinic supercell.


 Subroutine GETGRP returns: Found  2 space group operations
 (whereof  2 operations were pure point group operations)
 out of a pool of  2 trial point group operations.


The static configuration has the point symmetry S_2 .


Analysis of symmetry for dynamics (positions and initial velocities):
=====================================================================
 Subroutine PRICEL returns:
 Original cell was already a primitive cell.
 

 Routine SETGRP: Setting up the symmetry group for a 
 triclinic supercell.


 Subroutine GETGRP returns: Found  2 space group operations
 (whereof  2 operations were pure point group operations)
 out of a pool of  2 trial point group operations.


The dynamic configuration has the point symmetry S_2 .


 Subroutine INISYM returns: Found  2 space group operations
 (whereof  2 operations are pure point group operations),
 and found     1 'primitive' translations



--------------------------------------------------------------------------------------------------------




 MACROSCOPIC STATIC DIELECTRIC TENSOR (including local field effects in DFT)
 ------------------------------------------------------
           2.441540    -0.046145    -0.239451
          -0.046145     2.289335     0.087339
          -0.239452     0.087340     2.573718
 ------------------------------------------------------


 PIEZOELECTRIC TENSOR  for field in x, y, z        (e  Angst)
          XX          YY          ZZ          XY          YZ          ZX
  --------------------------------------------------------------------------------
  x     0.00160    -0.00158    -0.00007    -0.00113     0.00336    -0.00279
  y     0.00003    -0.00127     0.00134     0.00029    -0.00188    -0.00162
  z     0.00334    -0.00252    -0.00013     0.00149     0.00169    -0.00049

 PIEZOELECTRIC TENSOR  for field in x, y, z        (C/m^2)
          XX          YY          ZZ          XY          YZ          ZX
  --------------------------------------------------------------------------------
  x     0.00000     0.00000     0.00000     0.00000     0.00000     0.00000
  y     0.00000     0.00000     0.00000     0.00000     0.00000     0.00000
  z     0.00000     0.00000     0.00000     0.00000     0.00000     0.00000
 
 BORN EFFECTIVE CHARGES (in e, cummulative output)
 -------------------------------------------------
 ion    1
    1     1.23074     0.04201     0.00852
    2     0.03080     1.18687    -0.03927
    3    -0.01458    -0.04850     1.19111
 ion    2
    1     1.23075     0.04204     0.00854
    2     0.03081     1.18687    -0.03927
    3    -0.01457    -0.04857     1.19110
 ion    3
    1     2.92048    -0.49067    -0.07167
    2     0.08327     3.20936     0.07653
    3     0.13394     0.73378     3.27777
 ion    4
    1     2.92043    -0.49069    -0.07169
    2     0.08308     3.20940     0.07636
    3     0.13385     0.73369     3.27775
 ion    5
    1    -0.49294     0.38713     0.21815
    2     0.19239    -0.86411    -0.33468
    3     0.15659    -0.59482    -0.75054
 ion    6
    1    -0.49319     0.38725     0.21844
    2     0.19243    -0.86428    -0.33472
    3     0.15689    -0.59476    -0.75086
 ion    7
    1    -1.24132    -0.24800     0.44866
    2    -0.25968    -1.17916     0.17385
    3     0.42208     0.13505    -1.29720
 ion    8
    1    -1.24071    -0.24758     0.44870
    2    -0.25984    -1.17924     0.17377
    3     0.42185     0.13474    -1.29731
 ion    9
    1    -1.33033    -0.14053    -0.25131
    2    -0.33769    -1.05451    -0.24765
    3    -0.51720    -0.38567    -1.25995
 ion   10
    1    -1.32993    -0.14041    -0.25131
    2    -0.33751    -1.05445    -0.24742
    3    -0.51711    -0.38560    -1.25963
 ion   11
    1    -1.08703     0.44957    -0.35244
    2     0.29084    -1.29814     0.37108
    3    -0.18093     0.16049    -1.16119
 ion   12
    1    -1.08695     0.44988    -0.35258
    2     0.29109    -1.29862     0.37142
    3    -0.18081     0.16017    -1.16105


--------------------------------------------------------------------------------------------------------


     LOOP+:  cpu time  881.3140: real time  885.3981
    4ORBIT:  cpu time    0.0000: real time    0.0000
 BZINTS: Fermi energy:  0.428874; 74.000000 electrons
         Band energy:-706.274602;  BLOECHL correction:  0.000000

 total amount of memory used by VASP MPI-rank0   160172. kBytes
=======================================================================

   base      :      30000. kBytes
   nonl-proj :     104527. kBytes
   fftplans  :       1660. kBytes
   grid      :       6365. kBytes
   one-center:         36. kBytes
   wavefun   :      17584. kBytes
 
  
  
 General timing and accounting informations for this job:
 ========================================================
  
                  Total CPU time used (sec):      884.245
                            User time (sec):      880.481
                          System time (sec):        3.765
                         Elapsed time (sec):      892.540
  
                   Maximum memory used (kb):      407500.
                   Average memory used (kb):           0.
  
                          Minor page faults:       295525
                          Major page faults:            9
                 Voluntary context switches:         3131
