<?xml version="1.0" encoding="ISO-8859-1"?>
<modeling>
 <generator>
  <i name="program" type="string">vasp </i>
  <i name="version" type="string">5.4.4.18Apr17-6-g9f103f2a35  </i>
  <i name="subversion" type="string">(build May 20 2017 13:34:48) complex            parallel </i>
  <i name="platform" type="string">Linux_Leeds_IFC </i>
  <i name="date" type="string">2017 06 04 </i>
  <i name="time" type="string">16:06:41 </i>
 </generator>
 <incar>
  <i type="string" name="PREC">accurate</i>
  <i type="string" name="ALGO"> Fast</i>
  <i type="int" name="NELMIN">     4</i>
  <i type="int" name="IBRION">    -1</i>
  <i name="EDIFF">      0.00000005</i>
  <i type="int" name="NSW">     1</i>
  <i type="int" name="ISIF">     3</i>
  <i name="ENCUT">    600.00000000</i>
  <i name="POTIM">      0.20000000</i>
  <i type="logical" name="LREAL"> F  </i>
  <i type="int" name="ISMEAR">    -5</i>
  <i name="SIGMA">      0.05000000</i>
  <i type="int" name="LMAXMIX">     4</i>
  <i type="logical" name="LWAVE"> F  </i>
  <i type="logical" name="LCHARG"> F  </i>
  <i type="logical" name="LASPH"> T  </i>
  <v type="int" name="KPOINT_BSE">    -1     0     0     0</v>
  <i type="logical" name="LEPSILON"> T  </i>
  <i type="logical" name="LASPH"> T  </i>
 </incar>
 <structure name="primitive_cell" >
  <crystal>
   <varray name="basis" >
    <v>       4.70704855       0.01629280      -0.01563500 </v>
    <v>      -0.68993696       5.43783605       0.01221647 </v>
    <v>      -1.40713747      -1.41812530       5.71670864 </v>
   </varray>
   <i name="volume">    146.33637498 </i>
   <varray name="rec_basis" >
    <v>       0.21255036       0.02683528       0.05897508 </v>
    <v>      -0.00048497       0.18373302       0.04545868 </v>
    <v>       0.00058235      -0.00031924       0.17498998 </v>
   </varray>
  </crystal>
  <varray name="positions" >
   <v>       0.04137990       0.31330337       0.21203720 </v>
   <v>       0.22570170       0.36647089      -0.39075396 </v>
   <v>       0.31057741      -0.35211350       0.11961946 </v>
   <v>      -0.22518515      -0.10222609       0.10646541 </v>
   <v>      -0.31057741       0.35211350      -0.11961946 </v>
   <v>       0.22518515       0.10222609      -0.10646541 </v>
   <v>      -0.22570170      -0.36647089       0.39075396 </v>
   <v>      -0.41906494       0.04044492       0.41658179 </v>
   <v>      -0.38847020      -0.22315616       0.24278990 </v>
   <v>       0.38847020       0.22315616      -0.24278990 </v>
   <v>       0.41906494      -0.04044492      -0.41658179 </v>
   <v>      -0.04137990      -0.31330337      -0.21203720 </v>
  </varray>
 </structure>
 <varray name="primitive_index" >
  <v type="int" >        1 </v>
  <v type="int" >       12 </v>
  <v type="int" >        9 </v>
  <v type="int" >        7 </v>
  <v type="int" >       10 </v>
  <v type="int" >        8 </v>
  <v type="int" >       11 </v>
  <v type="int" >        5 </v>
  <v type="int" >        3 </v>
  <v type="int" >        4 </v>
  <v type="int" >        6 </v>
  <v type="int" >        2 </v>
 </varray>
 <kpoints>
  <generation param="Gamma">
   <v type="int" name="divisions">       7        6        5 </v>
   <v name="usershift">      0.00000000       0.00000000       0.00000000 </v>
   <v name="genvec1">      0.14285714      -0.00000000       0.00000000 </v>
   <v name="genvec2">     -0.00000000       0.16666667       0.00000000 </v>
   <v name="genvec3">     -0.00000000       0.00000000       0.20000000 </v>
   <v name="shift">      0.00000000       0.00000000       0.00000000 </v>
  </generation>
  <varray name="kpointlist" >
   <v>       0.00000000       0.00000000       0.00000000 </v>
   <v>       0.14285714      -0.00000000      -0.00000000 </v>
   <v>       0.28571429      -0.00000000      -0.00000000 </v>
   <v>       0.42857143      -0.00000000       0.00000000 </v>
   <v>       0.00000000       0.16666667      -0.00000000 </v>
   <v>       0.14285714       0.16666667      -0.00000000 </v>
   <v>       0.28571429       0.16666667       0.00000000 </v>
   <v>       0.42857143       0.16666667      -0.00000000 </v>
   <v>      -0.42857143       0.16666667      -0.00000000 </v>
   <v>      -0.28571429       0.16666667       0.00000000 </v>
   <v>      -0.14285714       0.16666667       0.00000000 </v>
   <v>      -0.00000000       0.33333333       0.00000000 </v>
   <v>       0.14285714       0.33333333       0.00000000 </v>
   <v>       0.28571429       0.33333333      -0.00000000 </v>
   <v>       0.42857143       0.33333333      -0.00000000 </v>
   <v>      -0.42857143       0.33333333       0.00000000 </v>
   <v>      -0.28571429       0.33333333       0.00000000 </v>
   <v>      -0.14285714       0.33333333       0.00000000 </v>
   <v>       0.00000000       0.50000000       0.00000000 </v>
   <v>       0.14285714       0.50000000       0.00000000 </v>
   <v>       0.28571429       0.50000000       0.00000000 </v>
   <v>       0.42857143       0.50000000       0.00000000 </v>
   <v>       0.00000000      -0.00000000       0.20000000 </v>
   <v>       0.14285714       0.00000000       0.20000000 </v>
   <v>       0.28571429      -0.00000000       0.20000000 </v>
   <v>       0.42857143      -0.00000000       0.20000000 </v>
   <v>      -0.42857143       0.00000000       0.20000000 </v>
   <v>      -0.28571429      -0.00000000       0.20000000 </v>
   <v>      -0.14285714       0.00000000       0.20000000 </v>
   <v>       0.00000000       0.16666667       0.20000000 </v>
   <v>       0.14285714       0.16666667       0.20000000 </v>
   <v>       0.28571429       0.16666667       0.20000000 </v>
   <v>       0.42857143       0.16666667       0.20000000 </v>
   <v>      -0.42857143       0.16666667       0.20000000 </v>
   <v>      -0.28571429       0.16666667       0.20000000 </v>
   <v>      -0.14285714       0.16666667       0.20000000 </v>
   <v>       0.00000000       0.33333333       0.20000000 </v>
   <v>       0.14285714       0.33333333       0.20000000 </v>
   <v>       0.28571429       0.33333333       0.20000000 </v>
   <v>       0.42857143       0.33333333       0.20000000 </v>
   <v>      -0.42857143       0.33333333       0.20000000 </v>
   <v>      -0.28571429       0.33333333       0.20000000 </v>
   <v>      -0.14285714       0.33333333       0.20000000 </v>
   <v>       0.00000000       0.50000000       0.20000000 </v>
   <v>       0.14285714       0.50000000       0.20000000 </v>
   <v>       0.28571429       0.50000000       0.20000000 </v>
   <v>       0.42857143       0.50000000       0.20000000 </v>
   <v>      -0.42857143       0.50000000       0.20000000 </v>
   <v>      -0.28571429       0.50000000       0.20000000 </v>
   <v>      -0.14285714       0.50000000       0.20000000 </v>
   <v>       0.00000000      -0.33333333       0.20000000 </v>
   <v>       0.14285714      -0.33333333       0.20000000 </v>
   <v>       0.28571429      -0.33333333       0.20000000 </v>
   <v>       0.42857143      -0.33333333       0.20000000 </v>
   <v>      -0.42857143      -0.33333333       0.20000000 </v>
   <v>      -0.28571429      -0.33333333       0.20000000 </v>
   <v>      -0.14285714      -0.33333333       0.20000000 </v>
   <v>       0.00000000      -0.16666667       0.20000000 </v>
   <v>       0.14285714      -0.16666667       0.20000000 </v>
   <v>       0.28571429      -0.16666667       0.20000000 </v>
   <v>       0.42857143      -0.16666667       0.20000000 </v>
   <v>      -0.42857143      -0.16666667       0.20000000 </v>
   <v>      -0.28571429      -0.16666667       0.20000000 </v>
   <v>      -0.14285714      -0.16666667       0.20000000 </v>
   <v>       0.00000000      -0.00000000       0.40000000 </v>
   <v>       0.14285714       0.00000000       0.40000000 </v>
   <v>       0.28571429      -0.00000000       0.40000000 </v>
   <v>       0.42857143      -0.00000000       0.40000000 </v>
   <v>      -0.42857143      -0.00000000       0.40000000 </v>
   <v>      -0.28571429       0.00000000       0.40000000 </v>
   <v>      -0.14285714       0.00000000       0.40000000 </v>
   <v>       0.00000000       0.16666667       0.40000000 </v>
   <v>       0.14285714       0.16666667       0.40000000 </v>
   <v>       0.28571429       0.16666667       0.40000000 </v>
   <v>       0.42857143       0.16666667       0.40000000 </v>
   <v>      -0.42857143       0.16666667       0.40000000 </v>
   <v>      -0.28571429       0.16666667       0.40000000 </v>
   <v>      -0.14285714       0.16666667       0.40000000 </v>
   <v>       0.00000000       0.33333333       0.40000000 </v>
   <v>       0.14285714       0.33333333       0.40000000 </v>
   <v>       0.28571429       0.33333333       0.40000000 </v>
   <v>       0.42857143       0.33333333       0.40000000 </v>
   <v>      -0.42857143       0.33333333       0.40000000 </v>
   <v>      -0.28571429       0.33333333       0.40000000 </v>
   <v>      -0.14285714       0.33333333       0.40000000 </v>
   <v>       0.00000000       0.50000000       0.40000000 </v>
   <v>       0.14285714       0.50000000       0.40000000 </v>
   <v>       0.28571429       0.50000000       0.40000000 </v>
   <v>       0.42857143       0.50000000       0.40000000 </v>
   <v>      -0.42857143       0.50000000       0.40000000 </v>
   <v>      -0.28571429       0.50000000       0.40000000 </v>
   <v>      -0.14285714       0.50000000       0.40000000 </v>
   <v>       0.00000000      -0.33333333       0.40000000 </v>
   <v>       0.14285714      -0.33333333       0.40000000 </v>
   <v>       0.28571429      -0.33333333       0.40000000 </v>
   <v>       0.42857143      -0.33333333       0.40000000 </v>
   <v>      -0.42857143      -0.33333333       0.40000000 </v>
   <v>      -0.28571429      -0.33333333       0.40000000 </v>
   <v>      -0.14285714      -0.33333333       0.40000000 </v>
   <v>       0.00000000      -0.16666667       0.40000000 </v>
   <v>       0.14285714      -0.16666667       0.40000000 </v>
   <v>       0.28571429      -0.16666667       0.40000000 </v>
   <v>       0.42857143      -0.16666667       0.40000000 </v>
   <v>      -0.42857143      -0.16666667       0.40000000 </v>
   <v>      -0.28571429      -0.16666667       0.40000000 </v>
   <v>      -0.14285714      -0.16666667       0.40000000 </v>
  </varray>
  <varray name="weights" >
   <v>       0.00476190 </v>
   <v>       0.00952381 </v>
   <v>       0.00952381 </v>
   <v>       0.00952381 </v>
   <v>       0.00952381 </v>
   <v>       0.00952381 </v>
   <v>       0.00952381 </v>
   <v>       0.00952381 </v>
   <v>       0.00952381 </v>
   <v>       0.00952381 </v>
   <v>       0.00952381 </v>
   <v>       0.00952381 </v>
   <v>       0.00952381 </v>
   <v>       0.00952381 </v>
   <v>       0.00952381 </v>
   <v>       0.00952381 </v>
   <v>       0.00952381 </v>
   <v>       0.00952381 </v>
   <v>       0.00476190 </v>
   <v>       0.00952381 </v>
   <v>       0.00952381 </v>
   <v>       0.00952381 </v>
   <v>       0.00952381 </v>
   <v>       0.00952381 </v>
   <v>       0.00952381 </v>
   <v>       0.00952381 </v>
   <v>       0.00952381 </v>
   <v>       0.00952381 </v>
   <v>       0.00952381 </v>
   <v>       0.00952381 </v>
   <v>       0.00952381 </v>
   <v>       0.00952381 </v>
   <v>       0.00952381 </v>
   <v>       0.00952381 </v>
   <v>       0.00952381 </v>
   <v>       0.00952381 </v>
   <v>       0.00952381 </v>
   <v>       0.00952381 </v>
   <v>       0.00952381 </v>
   <v>       0.00952381 </v>
   <v>       0.00952381 </v>
   <v>       0.00952381 </v>
   <v>       0.00952381 </v>
   <v>       0.00952381 </v>
   <v>       0.00952381 </v>
   <v>       0.00952381 </v>
   <v>       0.00952381 </v>
   <v>       0.00952381 </v>
   <v>       0.00952381 </v>
   <v>       0.00952381 </v>
   <v>       0.00952381 </v>
   <v>       0.00952381 </v>
   <v>       0.00952381 </v>
   <v>       0.00952381 </v>
   <v>       0.00952381 </v>
   <v>       0.00952381 </v>
   <v>       0.00952381 </v>
   <v>       0.00952381 </v>
   <v>       0.00952381 </v>
   <v>       0.00952381 </v>
   <v>       0.00952381 </v>
   <v>       0.00952381 </v>
   <v>       0.00952381 </v>
   <v>       0.00952381 </v>
   <v>       0.00952381 </v>
   <v>       0.00952381 </v>
   <v>       0.00952381 </v>
   <v>       0.00952381 </v>
   <v>       0.00952381 </v>
   <v>       0.00952381 </v>
   <v>       0.00952381 </v>
   <v>       0.00952381 </v>
   <v>       0.00952381 </v>
   <v>       0.00952381 </v>
   <v>       0.00952381 </v>
   <v>       0.00952381 </v>
   <v>       0.00952381 </v>
   <v>       0.00952381 </v>
   <v>       0.00952381 </v>
   <v>       0.00952381 </v>
   <v>       0.00952381 </v>
   <v>       0.00952381 </v>
   <v>       0.00952381 </v>
   <v>       0.00952381 </v>
   <v>       0.00952381 </v>
   <v>       0.00952381 </v>
   <v>       0.00952381 </v>
   <v>       0.00952381 </v>
   <v>       0.00952381 </v>
   <v>       0.00952381 </v>
   <v>       0.00952381 </v>
   <v>       0.00952381 </v>
   <v>       0.00952381 </v>
   <v>       0.00952381 </v>
   <v>       0.00952381 </v>
   <v>       0.00952381 </v>
   <v>       0.00952381 </v>
   <v>       0.00952381 </v>
   <v>       0.00952381 </v>
   <v>       0.00952381 </v>
   <v>       0.00952381 </v>
   <v>       0.00952381 </v>
   <v>       0.00952381 </v>
   <v>       0.00952381 </v>
   <v>       0.00952381 </v>
   <v>       0.00952381 </v>
  </varray>
  <varray name="tetrahedronlist"  type="int" >
   <v type="int" >        2        1        2        6       23 </v>
   <v type="int" >        2        1        5        6       23 </v>
   <v type="int" >        2        5        6       23       30 </v>
   <v type="int" >        2        2        6       23       24 </v>
   <v type="int" >        2        6       23       24       31 </v>
   <v type="int" >        2        6       23       30       31 </v>
   <v type="int" >        2        2        3        7       24 </v>
   <v type="int" >        2        2        6        7       24 </v>
   <v type="int" >        2        6        7       24       31 </v>
   <v type="int" >        2        3        7       24       25 </v>
   <v type="int" >        2        7       24       25       32 </v>
   <v type="int" >        2        7       24       31       32 </v>
   <v type="int" >        2        3        4        8       25 </v>
   <v type="int" >        2        3        7        8       25 </v>
   <v type="int" >        2        7        8       25       32 </v>
   <v type="int" >        2        4        8       25       26 </v>
   <v type="int" >        2        8       25       26       33 </v>
   <v type="int" >        2        8       25       32       33 </v>
   <v type="int" >        2        4        4        9       26 </v>
   <v type="int" >        2        4        8        9       26 </v>
   <v type="int" >        2        8        9       26       33 </v>
   <v type="int" >        2        4        9       26       27 </v>
   <v type="int" >        2        9       26       27       34 </v>
   <v type="int" >        2        9       26       33       34 </v>
   <v type="int" >        2        3        4       10       27 </v>
   <v type="int" >        2        4        9       10       27 </v>
   <v type="int" >        2        9       10       27       34 </v>
   <v type="int" >        2        3       10       27       28 </v>
   <v type="int" >        2       10       27       28       35 </v>
   <v type="int" >        2       10       27       34       35 </v>
   <v type="int" >        2        2        3       11       28 </v>
   <v type="int" >        2        3       10       11       28 </v>
   <v type="int" >        2       10       11       28       35 </v>
   <v type="int" >        2        2       11       28       29 </v>
   <v type="int" >        2       11       28       29       36 </v>
   <v type="int" >        2       11       28       35       36 </v>
   <v type="int" >        2        1        2        5       29 </v>
   <v type="int" >        2        2        5       11       29 </v>
   <v type="int" >        2        5       11       29       36 </v>
   <v type="int" >        2        1        5       23       29 </v>
   <v type="int" >        2        5       23       29       30 </v>
   <v type="int" >        2        5       29       30       36 </v>
   <v type="int" >        2        5        6       13       30 </v>
   <v type="int" >        2        5       12       13       30 </v>
   <v type="int" >        2       12       13       30       37 </v>
   <v type="int" >        2        6       13       30       31 </v>
   <v type="int" >        2       13       30       31       38 </v>
   <v type="int" >        2       13       30       37       38 </v>
   <v type="int" >        2        6        7       14       31 </v>
   <v type="int" >        2        6       13       14       31 </v>
   <v type="int" >        2       13       14       31       38 </v>
   <v type="int" >        2        7       14       31       32 </v>
   <v type="int" >        2       14       31       32       39 </v>
   <v type="int" >        2       14       31       38       39 </v>
   <v type="int" >        2        7        8       15       32 </v>
   <v type="int" >        2        7       14       15       32 </v>
   <v type="int" >        2       14       15       32       39 </v>
   <v type="int" >        2        8       15       32       33 </v>
   <v type="int" >        2       15       32       33       40 </v>
   <v type="int" >        2       15       32       39       40 </v>
   <v type="int" >        2        8        9       16       33 </v>
   <v type="int" >        2        8       15       16       33 </v>
   <v type="int" >        2       15       16       33       40 </v>
   <v type="int" >        2        9       16       33       34 </v>
   <v type="int" >        2       16       33       34       41 </v>
   <v type="int" >        2       16       33       40       41 </v>
   <v type="int" >        2        9       10       17       34 </v>
   <v type="int" >        2        9       16       17       34 </v>
   <v type="int" >        2       16       17       34       41 </v>
   <v type="int" >        2       10       17       34       35 </v>
   <v type="int" >        2       17       34       35       42 </v>
   <v type="int" >        2       17       34       41       42 </v>
   <v type="int" >        2       10       11       18       35 </v>
   <v type="int" >        2       10       17       18       35 </v>
   <v type="int" >        2       17       18       35       42 </v>
   <v type="int" >        2       11       18       35       36 </v>
   <v type="int" >        2       18       35       36       43 </v>
   <v type="int" >        2       18       35       42       43 </v>
   <v type="int" >        2        5       11       12       36 </v>
   <v type="int" >        2       11       12       18       36 </v>
   <v type="int" >        2       12       18       36       43 </v>
   <v type="int" >        2        5       12       30       36 </v>
   <v type="int" >        2       12       30       36       37 </v>
   <v type="int" >        2       12       36       37       43 </v>
   <v type="int" >        2       12       13       20       37 </v>
   <v type="int" >        2       12       19       20       37 </v>
   <v type="int" >        2       19       20       37       44 </v>
   <v type="int" >        2       13       20       37       38 </v>
   <v type="int" >        2       20       37       38       45 </v>
   <v type="int" >        2       20       37       44       45 </v>
   <v type="int" >        2       13       14       21       38 </v>
   <v type="int" >        2       13       20       21       38 </v>
   <v type="int" >        2       20       21       38       45 </v>
   <v type="int" >        2       14       21       38       39 </v>
   <v type="int" >        2       21       38       39       46 </v>
   <v type="int" >        2       21       38       45       46 </v>
   <v type="int" >        2       14       15       22       39 </v>
   <v type="int" >        2       14       21       22       39 </v>
   <v type="int" >        2       21       22       39       46 </v>
   <v type="int" >        2       15       22       39       40 </v>
   <v type="int" >        2       22       39       40       47 </v>
   <v type="int" >        2       22       39       46       47 </v>
   <v type="int" >        2       15       16       22       40 </v>
   <v type="int" >        2       15       22       22       40 </v>
   <v type="int" >        2       22       22       40       47 </v>
   <v type="int" >        2       16       22       40       41 </v>
   <v type="int" >        2       22       40       41       48 </v>
   <v type="int" >        2       22       40       47       48 </v>
   <v type="int" >        2       16       17       21       41 </v>
   <v type="int" >        2       16       21       22       41 </v>
   <v type="int" >        2       21       22       41       48 </v>
   <v type="int" >        2       17       21       41       42 </v>
   <v type="int" >        2       21       41       42       49 </v>
   <v type="int" >        2       21       41       48       49 </v>
   <v type="int" >        2       17       18       20       42 </v>
   <v type="int" >        2       17       20       21       42 </v>
   <v type="int" >        2       20       21       42       49 </v>
   <v type="int" >        2       18       20       42       43 </v>
   <v type="int" >        2       20       42       43       50 </v>
   <v type="int" >        2       20       42       49       50 </v>
   <v type="int" >        2       12       18       19       43 </v>
   <v type="int" >        2       18       19       20       43 </v>
   <v type="int" >        2       19       20       43       50 </v>
   <v type="int" >        2       12       19       37       43 </v>
   <v type="int" >        2       19       37       43       44 </v>
   <v type="int" >        2       19       43       44       50 </v>
   <v type="int" >        2       18       19       20       44 </v>
   <v type="int" >        2       12       18       19       44 </v>
   <v type="int" >        2       12       18       44       51 </v>
   <v type="int" >        2       18       20       44       45 </v>
   <v type="int" >        2       18       44       45       52 </v>
   <v type="int" >        2       18       44       51       52 </v>
   <v type="int" >        2       17       20       21       45 </v>
   <v type="int" >        2       17       18       20       45 </v>
   <v type="int" >        2       17       18       45       52 </v>
   <v type="int" >        2       17       21       45       46 </v>
   <v type="int" >        2       17       45       46       53 </v>
   <v type="int" >        2       17       45       52       53 </v>
   <v type="int" >        2       16       21       22       46 </v>
   <v type="int" >        2       16       17       21       46 </v>
   <v type="int" >        2       16       17       46       53 </v>
   <v type="int" >        2       16       22       46       47 </v>
   <v type="int" >        2       16       46       47       54 </v>
   <v type="int" >        2       16       46       53       54 </v>
   <v type="int" >        2       15       22       22       47 </v>
   <v type="int" >        2       15       16       22       47 </v>
   <v type="int" >        2       15       16       47       54 </v>
   <v type="int" >        2       15       22       47       48 </v>
   <v type="int" >        2       15       47       48       55 </v>
   <v type="int" >        2       15       47       54       55 </v>
   <v type="int" >        2       14       21       22       48 </v>
   <v type="int" >        2       14       15       22       48 </v>
   <v type="int" >        2       14       15       48       55 </v>
   <v type="int" >        2       14       21       48       49 </v>
   <v type="int" >        2       14       48       49       56 </v>
   <v type="int" >        2       14       48       55       56 </v>
   <v type="int" >        2       13       20       21       49 </v>
   <v type="int" >        2       13       14       21       49 </v>
   <v type="int" >        2       13       14       49       56 </v>
   <v type="int" >        2       13       20       49       50 </v>
   <v type="int" >        2       13       49       50       57 </v>
   <v type="int" >        2       13       49       56       57 </v>
   <v type="int" >        2       12       19       20       50 </v>
   <v type="int" >        2       12       13       20       50 </v>
   <v type="int" >        2       12       13       50       57 </v>
   <v type="int" >        2       12       19       44       50 </v>
   <v type="int" >        2       12       44       50       51 </v>
   <v type="int" >        2       12       50       51       57 </v>
   <v type="int" >        2       11       12       18       51 </v>
   <v type="int" >        2        5       11       12       51 </v>
   <v type="int" >        2        5       11       51       58 </v>
   <v type="int" >        2       11       18       51       52 </v>
   <v type="int" >        2       11       51       52       59 </v>
   <v type="int" >        2       11       51       58       59 </v>
   <v type="int" >        2       10       17       18       52 </v>
   <v type="int" >        2       10       11       18       52 </v>
   <v type="int" >        2       10       11       52       59 </v>
   <v type="int" >        2       10       17       52       53 </v>
   <v type="int" >        2       10       52       53       60 </v>
   <v type="int" >        2       10       52       59       60 </v>
   <v type="int" >        2        9       16       17       53 </v>
   <v type="int" >        2        9       10       17       53 </v>
   <v type="int" >        2        9       10       53       60 </v>
   <v type="int" >        2        9       16       53       54 </v>
   <v type="int" >        2        9       53       54       61 </v>
   <v type="int" >        2        9       53       60       61 </v>
   <v type="int" >        2        8       15       16       54 </v>
   <v type="int" >        2        8        9       16       54 </v>
   <v type="int" >        2        8        9       54       61 </v>
   <v type="int" >        2        8       15       54       55 </v>
   <v type="int" >        2        8       54       55       62 </v>
   <v type="int" >        2        8       54       61       62 </v>
   <v type="int" >        2        7       14       15       55 </v>
   <v type="int" >        2        7        8       15       55 </v>
   <v type="int" >        2        7        8       55       62 </v>
   <v type="int" >        2        7       14       55       56 </v>
   <v type="int" >        2        7       55       56       63 </v>
   <v type="int" >        2        7       55       62       63 </v>
   <v type="int" >        2        6       13       14       56 </v>
   <v type="int" >        2        6        7       14       56 </v>
   <v type="int" >        2        6        7       56       63 </v>
   <v type="int" >        2        6       13       56       57 </v>
   <v type="int" >        2        6       56       57       64 </v>
   <v type="int" >        2        6       56       63       64 </v>
   <v type="int" >        2        5       12       13       57 </v>
   <v type="int" >        2        5        6       13       57 </v>
   <v type="int" >        2        5        6       57       64 </v>
   <v type="int" >        2        5       12       51       57 </v>
   <v type="int" >        2        5       51       57       58 </v>
   <v type="int" >        2        5       57       58       64 </v>
   <v type="int" >        2        2        5       11       58 </v>
   <v type="int" >        2        1        2        5       58 </v>
   <v type="int" >        2        1        2       23       58 </v>
   <v type="int" >        2        2       11       58       59 </v>
   <v type="int" >        2        2       24       58       59 </v>
   <v type="int" >        2        2       23       24       58 </v>
   <v type="int" >        2        3       10       11       59 </v>
   <v type="int" >        2        2        3       11       59 </v>
   <v type="int" >        2        2        3       24       59 </v>
   <v type="int" >        2        3       10       59       60 </v>
   <v type="int" >        2        3       25       59       60 </v>
   <v type="int" >        2        3       24       25       59 </v>
   <v type="int" >        2        4        9       10       60 </v>
   <v type="int" >        2        3        4       10       60 </v>
   <v type="int" >        2        3        4       25       60 </v>
   <v type="int" >        2        4        9       60       61 </v>
   <v type="int" >        2        4       26       60       61 </v>
   <v type="int" >        2        4       25       26       60 </v>
   <v type="int" >        2        4        8        9       61 </v>
   <v type="int" >        2        4        4        9       61 </v>
   <v type="int" >        2        4        4       26       61 </v>
   <v type="int" >        2        4        8       61       62 </v>
   <v type="int" >        2        4       27       61       62 </v>
   <v type="int" >        2        4       26       27       61 </v>
   <v type="int" >        2        3        7        8       62 </v>
   <v type="int" >        2        3        4        8       62 </v>
   <v type="int" >        2        3        4       27       62 </v>
   <v type="int" >        2        3        7       62       63 </v>
   <v type="int" >        2        3       28       62       63 </v>
   <v type="int" >        2        3       27       28       62 </v>
   <v type="int" >        2        2        6        7       63 </v>
   <v type="int" >        2        2        3        7       63 </v>
   <v type="int" >        2        2        3       28       63 </v>
   <v type="int" >        2        2        6       63       64 </v>
   <v type="int" >        2        2       29       63       64 </v>
   <v type="int" >        2        2       28       29       63 </v>
   <v type="int" >        2        1        5        6       64 </v>
   <v type="int" >        2        1        2        6       64 </v>
   <v type="int" >        2        1        2       29       64 </v>
   <v type="int" >        2        1        5       58       64 </v>
   <v type="int" >        2        1       23       58       64 </v>
   <v type="int" >        2        1       23       29       64 </v>
   <v type="int" >        2       23       24       31       65 </v>
   <v type="int" >        2       23       30       31       65 </v>
   <v type="int" >        2       30       31       65       72 </v>
   <v type="int" >        2       24       31       65       66 </v>
   <v type="int" >        2       31       65       66       73 </v>
   <v type="int" >        2       31       65       72       73 </v>
   <v type="int" >        2       24       25       32       66 </v>
   <v type="int" >        2       24       31       32       66 </v>
   <v type="int" >        2       31       32       66       73 </v>
   <v type="int" >        2       25       32       66       67 </v>
   <v type="int" >        2       32       66       67       74 </v>
   <v type="int" >        2       32       66       73       74 </v>
   <v type="int" >        2       25       26       33       67 </v>
   <v type="int" >        2       25       32       33       67 </v>
   <v type="int" >        2       32       33       67       74 </v>
   <v type="int" >        2       26       33       67       68 </v>
   <v type="int" >        2       33       67       68       75 </v>
   <v type="int" >        2       33       67       74       75 </v>
   <v type="int" >        2       26       27       34       68 </v>
   <v type="int" >        2       26       33       34       68 </v>
   <v type="int" >        2       33       34       68       75 </v>
   <v type="int" >        2       27       34       68       69 </v>
   <v type="int" >        2       34       68       69       76 </v>
   <v type="int" >        2       34       68       75       76 </v>
   <v type="int" >        2       27       28       35       69 </v>
   <v type="int" >        2       27       34       35       69 </v>
   <v type="int" >        2       34       35       69       76 </v>
   <v type="int" >        2       28       35       69       70 </v>
   <v type="int" >        2       35       69       70       77 </v>
   <v type="int" >        2       35       69       76       77 </v>
   <v type="int" >        2       28       29       36       70 </v>
   <v type="int" >        2       28       35       36       70 </v>
   <v type="int" >        2       35       36       70       77 </v>
   <v type="int" >        2       29       36       70       71 </v>
   <v type="int" >        2       36       70       71       78 </v>
   <v type="int" >        2       36       70       77       78 </v>
   <v type="int" >        2       23       29       30       71 </v>
   <v type="int" >        2       29       30       36       71 </v>
   <v type="int" >        2       30       36       71       78 </v>
   <v type="int" >        2       23       30       65       71 </v>
   <v type="int" >        2       30       65       71       72 </v>
   <v type="int" >        2       30       71       72       78 </v>
   <v type="int" >        2       30       31       38       72 </v>
   <v type="int" >        2       30       37       38       72 </v>
   <v type="int" >        2       37       38       72       79 </v>
   <v type="int" >        2       31       38       72       73 </v>
   <v type="int" >        2       38       72       73       80 </v>
   <v type="int" >        2       38       72       79       80 </v>
   <v type="int" >        2       31       32       39       73 </v>
   <v type="int" >        2       31       38       39       73 </v>
   <v type="int" >        2       38       39       73       80 </v>
   <v type="int" >        2       32       39       73       74 </v>
   <v type="int" >        2       39       73       74       81 </v>
   <v type="int" >        2       39       73       80       81 </v>
   <v type="int" >        2       32       33       40       74 </v>
   <v type="int" >        2       32       39       40       74 </v>
   <v type="int" >        2       39       40       74       81 </v>
   <v type="int" >        2       33       40       74       75 </v>
   <v type="int" >        2       40       74       75       82 </v>
   <v type="int" >        2       40       74       81       82 </v>
   <v type="int" >        2       33       34       41       75 </v>
   <v type="int" >        2       33       40       41       75 </v>
   <v type="int" >        2       40       41       75       82 </v>
   <v type="int" >        2       34       41       75       76 </v>
   <v type="int" >        2       41       75       76       83 </v>
   <v type="int" >        2       41       75       82       83 </v>
   <v type="int" >        2       34       35       42       76 </v>
   <v type="int" >        2       34       41       42       76 </v>
   <v type="int" >        2       41       42       76       83 </v>
   <v type="int" >        2       35       42       76       77 </v>
   <v type="int" >        2       42       76       77       84 </v>
   <v type="int" >        2       42       76       83       84 </v>
   <v type="int" >        2       35       36       43       77 </v>
   <v type="int" >        2       35       42       43       77 </v>
   <v type="int" >        2       42       43       77       84 </v>
   <v type="int" >        2       36       43       77       78 </v>
   <v type="int" >        2       43       77       78       85 </v>
   <v type="int" >        2       43       77       84       85 </v>
   <v type="int" >        2       30       36       37       78 </v>
   <v type="int" >        2       36       37       43       78 </v>
   <v type="int" >        2       37       43       78       85 </v>
   <v type="int" >        2       30       37       72       78 </v>
   <v type="int" >        2       37       72       78       79 </v>
   <v type="int" >        2       37       78       79       85 </v>
   <v type="int" >        2       37       38       45       79 </v>
   <v type="int" >        2       37       44       45       79 </v>
   <v type="int" >        2       44       45       79       86 </v>
   <v type="int" >        2       38       45       79       80 </v>
   <v type="int" >        2       45       79       80       87 </v>
   <v type="int" >        2       45       79       86       87 </v>
   <v type="int" >        2       38       39       46       80 </v>
   <v type="int" >        2       38       45       46       80 </v>
   <v type="int" >        2       45       46       80       87 </v>
   <v type="int" >        2       39       46       80       81 </v>
   <v type="int" >        2       46       80       81       88 </v>
   <v type="int" >        2       46       80       87       88 </v>
   <v type="int" >        2       39       40       47       81 </v>
   <v type="int" >        2       39       46       47       81 </v>
   <v type="int" >        2       46       47       81       88 </v>
   <v type="int" >        2       40       47       81       82 </v>
   <v type="int" >        2       47       81       82       89 </v>
   <v type="int" >        2       47       81       88       89 </v>
   <v type="int" >        2       40       41       48       82 </v>
   <v type="int" >        2       40       47       48       82 </v>
   <v type="int" >        2       47       48       82       89 </v>
   <v type="int" >        2       41       48       82       83 </v>
   <v type="int" >        2       48       82       83       90 </v>
   <v type="int" >        2       48       82       89       90 </v>
   <v type="int" >        2       41       42       49       83 </v>
   <v type="int" >        2       41       48       49       83 </v>
   <v type="int" >        2       48       49       83       90 </v>
   <v type="int" >        2       42       49       83       84 </v>
   <v type="int" >        2       49       83       84       91 </v>
   <v type="int" >        2       49       83       90       91 </v>
   <v type="int" >        2       42       43       50       84 </v>
   <v type="int" >        2       42       49       50       84 </v>
   <v type="int" >        2       49       50       84       91 </v>
   <v type="int" >        2       43       50       84       85 </v>
   <v type="int" >        2       50       84       85       92 </v>
   <v type="int" >        2       50       84       91       92 </v>
   <v type="int" >        2       37       43       44       85 </v>
   <v type="int" >        2       43       44       50       85 </v>
   <v type="int" >        2       44       50       85       92 </v>
   <v type="int" >        2       37       44       79       85 </v>
   <v type="int" >        2       44       79       85       86 </v>
   <v type="int" >        2       44       85       86       92 </v>
   <v type="int" >        2       44       45       52       86 </v>
   <v type="int" >        2       44       51       52       86 </v>
   <v type="int" >        2       51       52       86       93 </v>
   <v type="int" >        2       45       52       86       87 </v>
   <v type="int" >        2       52       86       87       94 </v>
   <v type="int" >        2       52       86       93       94 </v>
   <v type="int" >        2       45       46       53       87 </v>
   <v type="int" >        2       45       52       53       87 </v>
   <v type="int" >        2       52       53       87       94 </v>
   <v type="int" >        2       46       53       87       88 </v>
   <v type="int" >        2       53       87       88       95 </v>
   <v type="int" >        2       53       87       94       95 </v>
   <v type="int" >        2       46       47       54       88 </v>
   <v type="int" >        2       46       53       54       88 </v>
   <v type="int" >        2       53       54       88       95 </v>
   <v type="int" >        2       47       54       88       89 </v>
   <v type="int" >        2       54       88       89       96 </v>
   <v type="int" >        2       54       88       95       96 </v>
   <v type="int" >        2       47       48       55       89 </v>
   <v type="int" >        2       47       54       55       89 </v>
   <v type="int" >        2       54       55       89       96 </v>
   <v type="int" >        2       48       55       89       90 </v>
   <v type="int" >        2       55       89       90       97 </v>
   <v type="int" >        2       55       89       96       97 </v>
   <v type="int" >        2       48       49       56       90 </v>
   <v type="int" >        2       48       55       56       90 </v>
   <v type="int" >        2       55       56       90       97 </v>
   <v type="int" >        2       49       56       90       91 </v>
   <v type="int" >        2       56       90       91       98 </v>
   <v type="int" >        2       56       90       97       98 </v>
   <v type="int" >        2       49       50       57       91 </v>
   <v type="int" >        2       49       56       57       91 </v>
   <v type="int" >        2       56       57       91       98 </v>
   <v type="int" >        2       50       57       91       92 </v>
   <v type="int" >        2       57       91       92       99 </v>
   <v type="int" >        2       57       91       98       99 </v>
   <v type="int" >        2       44       50       51       92 </v>
   <v type="int" >        2       50       51       57       92 </v>
   <v type="int" >        2       51       57       92       99 </v>
   <v type="int" >        2       44       51       86       92 </v>
   <v type="int" >        2       51       86       92       93 </v>
   <v type="int" >        2       51       92       93       99 </v>
   <v type="int" >        2       51       52       59       93 </v>
   <v type="int" >        2       51       58       59       93 </v>
   <v type="int" >        2       58       59       93      100 </v>
   <v type="int" >        2       52       59       93       94 </v>
   <v type="int" >        2       59       93       94      101 </v>
   <v type="int" >        2       59       93      100      101 </v>
   <v type="int" >        2       52       53       60       94 </v>
   <v type="int" >        2       52       59       60       94 </v>
   <v type="int" >        2       59       60       94      101 </v>
   <v type="int" >        2       53       60       94       95 </v>
   <v type="int" >        2       60       94       95      102 </v>
   <v type="int" >        2       60       94      101      102 </v>
   <v type="int" >        2       53       54       61       95 </v>
   <v type="int" >        2       53       60       61       95 </v>
   <v type="int" >        2       60       61       95      102 </v>
   <v type="int" >        2       54       61       95       96 </v>
   <v type="int" >        2       61       95       96      103 </v>
   <v type="int" >        2       61       95      102      103 </v>
   <v type="int" >        2       54       55       62       96 </v>
   <v type="int" >        2       54       61       62       96 </v>
   <v type="int" >        2       61       62       96      103 </v>
   <v type="int" >        2       55       62       96       97 </v>
   <v type="int" >        2       62       96       97      104 </v>
   <v type="int" >        2       62       96      103      104 </v>
   <v type="int" >        2       55       56       63       97 </v>
   <v type="int" >        2       55       62       63       97 </v>
   <v type="int" >        2       62       63       97      104 </v>
   <v type="int" >        2       56       63       97       98 </v>
   <v type="int" >        2       63       97       98      105 </v>
   <v type="int" >        2       63       97      104      105 </v>
   <v type="int" >        2       56       57       64       98 </v>
   <v type="int" >        2       56       63       64       98 </v>
   <v type="int" >        2       63       64       98      105 </v>
   <v type="int" >        2       57       64       98       99 </v>
   <v type="int" >        2       64       98       99      106 </v>
   <v type="int" >        2       64       98      105      106 </v>
   <v type="int" >        2       51       57       58       99 </v>
   <v type="int" >        2       57       58       64       99 </v>
   <v type="int" >        2       58       64       99      106 </v>
   <v type="int" >        2       51       58       93       99 </v>
   <v type="int" >        2       58       93       99      100 </v>
   <v type="int" >        2       58       99      100      106 </v>
   <v type="int" >        2       24       58       59      100 </v>
   <v type="int" >        2       23       24       58      100 </v>
   <v type="int" >        2       23       24       65      100 </v>
   <v type="int" >        2       24       59      100      101 </v>
   <v type="int" >        2       24       66      100      101 </v>
   <v type="int" >        2       24       65       66      100 </v>
   <v type="int" >        2       25       59       60      101 </v>
   <v type="int" >        2       24       25       59      101 </v>
   <v type="int" >        2       24       25       66      101 </v>
   <v type="int" >        2       25       60      101      102 </v>
   <v type="int" >        2       25       67      101      102 </v>
   <v type="int" >        2       25       66       67      101 </v>
   <v type="int" >        2       26       60       61      102 </v>
   <v type="int" >        2       25       26       60      102 </v>
   <v type="int" >        2       25       26       67      102 </v>
   <v type="int" >        2       26       61      102      103 </v>
   <v type="int" >        2       26       68      102      103 </v>
   <v type="int" >        2       26       67       68      102 </v>
   <v type="int" >        2       27       61       62      103 </v>
   <v type="int" >        2       26       27       61      103 </v>
   <v type="int" >        2       26       27       68      103 </v>
   <v type="int" >        2       27       62      103      104 </v>
   <v type="int" >        2       27       69      103      104 </v>
   <v type="int" >        2       27       68       69      103 </v>
   <v type="int" >        2       28       62       63      104 </v>
   <v type="int" >        2       27       28       62      104 </v>
   <v type="int" >        2       27       28       69      104 </v>
   <v type="int" >        2       28       63      104      105 </v>
   <v type="int" >        2       28       70      104      105 </v>
   <v type="int" >        2       28       69       70      104 </v>
   <v type="int" >        2       29       63       64      105 </v>
   <v type="int" >        2       28       29       63      105 </v>
   <v type="int" >        2       28       29       70      105 </v>
   <v type="int" >        2       29       64      105      106 </v>
   <v type="int" >        2       29       71      105      106 </v>
   <v type="int" >        2       29       70       71      105 </v>
   <v type="int" >        2       23       58       64      106 </v>
   <v type="int" >        2       23       29       64      106 </v>
   <v type="int" >        2       23       29       71      106 </v>
   <v type="int" >        2       23       58      100      106 </v>
   <v type="int" >        2       23       65      100      106 </v>
   <v type="int" >        2       23       65       71      106 </v>
   <v type="int" >        2       65       65       66       73 </v>
   <v type="int" >        2       65       65       72       73 </v>
   <v type="int" >        2       65       72       73      100 </v>
   <v type="int" >        2       65       66       71       73 </v>
   <v type="int" >        2       65       71       73      106 </v>
   <v type="int" >        2       65       73      100      106 </v>
   <v type="int" >        2       66       67       71       74 </v>
   <v type="int" >        2       66       71       73       74 </v>
   <v type="int" >        2       71       73       74      106 </v>
   <v type="int" >        2       67       70       71       74 </v>
   <v type="int" >        2       70       71       74      105 </v>
   <v type="int" >        2       71       74      105      106 </v>
   <v type="int" >        2       67       68       70       75 </v>
   <v type="int" >        2       67       70       74       75 </v>
   <v type="int" >        2       70       74       75      105 </v>
   <v type="int" >        2       68       69       70       75 </v>
   <v type="int" >        2       69       70       75      104 </v>
   <v type="int" >        2       70       75      104      105 </v>
   <v type="int" >        4       68       69       69       76 </v>
   <v type="int" >        2       68       69       75       76 </v>
   <v type="int" >        2       69       75       76      104 </v>
   <v type="int" >        2       68       69       76      103 </v>
   <v type="int" >        2       69       76      103      104 </v>
   <v type="int" >        2       68       69       70       77 </v>
   <v type="int" >        2       68       69       76       77 </v>
   <v type="int" >        2       68       76       77      103 </v>
   <v type="int" >        2       67       68       70       77 </v>
   <v type="int" >        2       67       68       77      102 </v>
   <v type="int" >        2       68       77      102      103 </v>
   <v type="int" >        2       67       70       71       78 </v>
   <v type="int" >        2       67       70       77       78 </v>
   <v type="int" >        2       67       77       78      102 </v>
   <v type="int" >        2       66       67       71       78 </v>
   <v type="int" >        2       66       67       78      101 </v>
   <v type="int" >        2       67       78      101      102 </v>
   <v type="int" >        2       65       66       71       72 </v>
   <v type="int" >        2       66       71       72       78 </v>
   <v type="int" >        2       66       72       78      101 </v>
   <v type="int" >        2       65       65       66       72 </v>
   <v type="int" >        2       65       66       72      100 </v>
   <v type="int" >        2       66       72      100      101 </v>
   <v type="int" >        2       72       73       80      100 </v>
   <v type="int" >        2       72       79       80      100 </v>
   <v type="int" >        2       79       80       93      100 </v>
   <v type="int" >        2       73       80      100      106 </v>
   <v type="int" >        2       80       99      100      106 </v>
   <v type="int" >        2       80       93       99      100 </v>
   <v type="int" >        2       73       74       81      106 </v>
   <v type="int" >        2       73       80       81      106 </v>
   <v type="int" >        2       80       81       99      106 </v>
   <v type="int" >        2       74       81      105      106 </v>
   <v type="int" >        2       81       98      105      106 </v>
   <v type="int" >        2       81       98       99      106 </v>
   <v type="int" >        2       74       75       82      105 </v>
   <v type="int" >        2       74       81       82      105 </v>
   <v type="int" >        2       81       82       98      105 </v>
   <v type="int" >        2       75       82      104      105 </v>
   <v type="int" >        2       82       97      104      105 </v>
   <v type="int" >        2       82       97       98      105 </v>
   <v type="int" >        2       75       76       83      104 </v>
   <v type="int" >        2       75       82       83      104 </v>
   <v type="int" >        2       82       83       97      104 </v>
   <v type="int" >        2       76       83      103      104 </v>
   <v type="int" >        2       83       96      103      104 </v>
   <v type="int" >        2       83       96       97      104 </v>
   <v type="int" >        2       76       77       84      103 </v>
   <v type="int" >        2       76       83       84      103 </v>
   <v type="int" >        2       83       84       96      103 </v>
   <v type="int" >        2       77       84      102      103 </v>
   <v type="int" >        2       84       95      102      103 </v>
   <v type="int" >        2       84       95       96      103 </v>
   <v type="int" >        2       77       78       85      102 </v>
   <v type="int" >        2       77       84       85      102 </v>
   <v type="int" >        2       84       85       95      102 </v>
   <v type="int" >        2       78       85      101      102 </v>
   <v type="int" >        2       85       94      101      102 </v>
   <v type="int" >        2       85       94       95      102 </v>
   <v type="int" >        2       72       78       79      101 </v>
   <v type="int" >        2       78       79       85      101 </v>
   <v type="int" >        2       79       85       94      101 </v>
   <v type="int" >        2       72       79      100      101 </v>
   <v type="int" >        2       79       93      100      101 </v>
   <v type="int" >        2       79       93       94      101 </v>
   <v type="int" >        2       79       80       87       93 </v>
   <v type="int" >        2       79       86       87       93 </v>
   <v type="int" >        2       86       86       87       93 </v>
   <v type="int" >        2       80       87       93       99 </v>
   <v type="int" >        2       87       92       93       99 </v>
   <v type="int" >        2       86       87       92       93 </v>
   <v type="int" >        2       80       81       88       99 </v>
   <v type="int" >        2       80       87       88       99 </v>
   <v type="int" >        2       87       88       92       99 </v>
   <v type="int" >        2       81       88       98       99 </v>
   <v type="int" >        2       88       91       98       99 </v>
   <v type="int" >        2       88       91       92       99 </v>
   <v type="int" >        2       81       82       89       98 </v>
   <v type="int" >        2       81       88       89       98 </v>
   <v type="int" >        2       88       89       91       98 </v>
   <v type="int" >        2       82       89       97       98 </v>
   <v type="int" >        2       89       90       97       98 </v>
   <v type="int" >        2       89       90       91       98 </v>
   <v type="int" >        2       82       83       90       97 </v>
   <v type="int" >        2       82       89       90       97 </v>
   <v type="int" >        4       89       90       90       97 </v>
   <v type="int" >        2       83       90       96       97 </v>
   <v type="int" >        2       89       90       96       97 </v>
   <v type="int" >        2       83       84       91       96 </v>
   <v type="int" >        2       83       90       91       96 </v>
   <v type="int" >        2       89       90       91       96 </v>
   <v type="int" >        2       84       91       95       96 </v>
   <v type="int" >        2       88       91       95       96 </v>
   <v type="int" >        2       88       89       91       96 </v>
   <v type="int" >        2       84       85       92       95 </v>
   <v type="int" >        2       84       91       92       95 </v>
   <v type="int" >        2       88       91       92       95 </v>
   <v type="int" >        2       85       92       94       95 </v>
   <v type="int" >        2       87       92       94       95 </v>
   <v type="int" >        2       87       88       92       95 </v>
   <v type="int" >        2       79       85       86       94 </v>
   <v type="int" >        2       85       86       92       94 </v>
   <v type="int" >        2       86       87       92       94 </v>
   <v type="int" >        2       79       86       93       94 </v>
   <v type="int" >        2       86       86       93       94 </v>
   <v type="int" >        2       86       86       87       94 </v>
  </varray>
  <i name="volumeweight">      0.00079365 </i>
 </kpoints>
 <parameters>
  <separator name="general" >
   <i type="string" name="SYSTEM">unknown system</i>
   <i type="logical" name="LCOMPAT"> F  </i>
  </separator>
  <separator name="electronic" >
   <i type="string" name="PREC">accura</i>
   <i name="ENMAX">    600.00000000</i>
   <i name="ENAUG">    605.39200000</i>
   <i name="EDIFF">      0.00000005</i>
   <i type="int" name="IALGO">    68</i>
   <i type="int" name="IWAVPR">    10</i>
   <i type="int" name="NBANDS">    48</i>
   <i name="NELECT">     74.00000000</i>
   <i type="int" name="TURBO">     0</i>
   <i type="int" name="IRESTART">     0</i>
   <i type="int" name="NREBOOT">     0</i>
   <i type="int" name="NMIN">     0</i>
   <i name="EREF">      0.00000000</i>
   <separator name="electronic smearing" >
    <i type="int" name="ISMEAR">    -5</i>
    <i name="SIGMA">      0.05000000</i>
    <i name="KSPACING">      0.50000000</i>
    <i type="logical" name="KGAMMA"> T  </i>
   </separator>
   <separator name="electronic projectors" >
    <i type="logical" name="LREAL"> F  </i>
    <v name="ROPT">      0.00000000      0.00000000      0.00000000</v>
    <i type="int" name="LMAXPAW">  -100</i>
    <i type="int" name="LMAXMIX">     4</i>
    <i type="logical" name="NLSPLINE"> F  </i>
   </separator>
   <separator name="electronic startup" >
    <i type="int" name="ISTART">     0</i>
    <i type="int" name="ICHARG">     2</i>
    <i type="int" name="INIWAV">     1</i>
   </separator>
   <separator name="electronic spin" >
    <i type="int" name="ISPIN">     1</i>
    <i type="logical" name="LNONCOLLINEAR"> F  </i>
    <v name="MAGMOM">      1.00000000      1.00000000      1.00000000      1.00000000      1.00000000      1.00000000      1.00000000      1.00000000      1.00000000      1.00000000      1.00000000      1.00000000</v>
    <i name="NUPDOWN">     -1.00000000</i>
    <i type="logical" name="LSORBIT"> F  </i>
    <v name="SAXIS">      0.00000000      0.00000000      1.00000000</v>
    <i type="logical" name="LSPIRAL"> F  </i>
    <v name="QSPIRAL">      0.00000000      0.00000000      0.00000000</v>
    <i type="logical" name="LZEROZ"> F  </i>
   </separator>
   <separator name="electronic exchange-correlation" >
    <i type="logical" name="LASPH"> T  </i>
    <i type="logical" name="LMETAGGA"> F  </i>
   </separator>
   <separator name="electronic convergence" >
    <i type="int" name="NELM">    60</i>
    <i type="int" name="NELMDL">     0</i>
    <i type="int" name="NELMIN">     4</i>
    <i name="ENINI">    600.00000000</i>
    <separator name="electronic convergence detail" >
     <i type="logical" name="LDIAG"> T  </i>
     <i type="logical" name="LSUBROT"> F  </i>
     <i name="WEIMIN">      0.00000000</i>
     <i name="EBREAK">      0.00000000</i>
     <i name="DEPER">      0.30000000</i>
     <i type="int" name="NRMM">     4</i>
     <i name="TIME">      0.40000000</i>
    </separator>
   </separator>
   <separator name="electronic mixer" >
    <i name="AMIX">      0.40000000</i>
    <i name="BMIX">      1.00000000</i>
    <i name="AMIN">      0.10000000</i>
    <i name="AMIX_MAG">      1.60000000</i>
    <i name="BMIX_MAG">      1.00000000</i>
    <separator name="electronic mixer details" >
     <i type="int" name="IMIX">     4</i>
     <i type="logical" name="MIXFIRST"> F  </i>
     <i type="int" name="MAXMIX">   -45</i>
     <i name="WC">    100.00000000</i>
     <i type="int" name="INIMIX">     1</i>
     <i type="int" name="MIXPRE">     1</i>
     <i type="int" name="MREMOVE">     5</i>
    </separator>
   </separator>
   <separator name="electronic dipolcorrection" >
    <i type="logical" name="LDIPOL"> F  </i>
    <i type="logical" name="LMONO"> F  </i>
    <i type="int" name="IDIPOL">     0</i>
    <i name="EPSILON">      1.00000000</i>
    <v name="DIPOL">   -100.00000000   -100.00000000   -100.00000000</v>
    <i name="EFIELD">      0.00000000</i>
   </separator>
  </separator>
  <separator name="grids" >
   <i type="int" name="NGX">    40</i>
   <i type="int" name="NGY">    48</i>
   <i type="int" name="NGZ">    48</i>
   <i type="int" name="NGXF">    80</i>
   <i type="int" name="NGYF">    96</i>
   <i type="int" name="NGZF">    96</i>
   <i type="logical" name="ADDGRID"> F  </i>
  </separator>
  <separator name="ionic" >
   <i type="int" name="NSW">     1</i>
   <i type="int" name="IBRION">    -1</i>
   <i type="int" name="MDALGO">     0</i>
   <i type="int" name="ISIF">     3</i>
   <i name="PSTRESS">      0.00000000</i>
   <i name="EDIFFG">      0.00000050</i>
   <i type="int" name="NFREE">     0</i>
   <i name="POTIM">      0.20000000</i>
   <i name="SMASS">     -3.00000000</i>
   <i name="SCALEE">      1.00000000</i>
  </separator>
  <separator name="ionic md" >
   <i name="TEBEG">      0.00010000</i>
   <i name="TEEND">      0.00010000</i>
   <i type="int" name="NBLOCK">     1</i>
   <i type="int" name="KBLOCK">     1</i>
   <i type="int" name="NPACO">   256</i>
   <i name="APACO">     16.00000000</i>
  </separator>
  <separator name="symmetry" >
   <i type="int" name="ISYM">     2</i>
   <i name="SYMPREC">      0.00001000</i>
  </separator>
  <separator name="dos" >
   <i type="int" name="LORBIT">     0</i>
   <v name="RWIGS">     -1.00000000     -1.00000000     -1.00000000</v>
   <i type="int" name="NEDOS">   301</i>
   <i name="EMIN">     10.00000000</i>
   <i name="EMAX">    -10.00000000</i>
   <i name="EFERMI">      0.00000000</i>
  </separator>
  <separator name="writing" >
   <i type="int" name="NWRITE">     2</i>
   <i type="logical" name="LWAVE"> F  </i>
   <i type="logical" name="LDOWNSAMPLE"> F  </i>
   <i type="logical" name="LCHARG"> F  </i>
   <i type="logical" name="LPARD"> F  </i>
   <i type="logical" name="LVTOT"> F  </i>
   <i type="logical" name="LVHAR"> F  </i>
   <i type="logical" name="LELF"> F  </i>
   <i type="logical" name="LOPTICS"> F  </i>
   <v name="STM">      0.00000000      0.00000000      0.00000000      0.00000000      0.00000000      0.00000000      0.00000000</v>
  </separator>
  <separator name="performance" >
   <i type="int" name="NPAR">    24</i>
   <i type="int" name="NSIM">     4</i>
   <i type="int" name="NBLK">    -1</i>
   <i type="logical" name="LPLANE"> T  </i>
   <i type="logical" name="LSCALAPACK"> T  </i>
   <i type="logical" name="LSCAAWARE"> F  </i>
   <i type="logical" name="LSCALU"> F  </i>
   <i type="logical" name="LASYNC"> F  </i>
   <i type="logical" name="LORBITALREAL"> F  </i>
  </separator>
  <separator name="miscellaneous" >
   <i type="int" name="IDIOT">     3</i>
   <i type="int" name="ISPECIAL">     0</i>
   <i type="logical" name="LMUSIC"> F  </i>
   <v name="POMASS">     22.99000000     32.06600000     16.00000000</v>
   <v name="DARWINR">      0.00000000      0.00000000      0.00000000</v>
   <v name="DARWINV">      1.00000000      1.00000000      1.00000000</v>
   <i type="logical" name="LCORR"> T  </i>
  </separator>
  <i type="logical" name="GGA_COMPAT"> T  </i>
  <i type="logical" name="LBERRY"> F  </i>
  <i type="int" name="ICORELEVEL">     0</i>
  <i type="logical" name="LDAU"> F  </i>
  <i type="int" name="I_CONSTRAINED_M">     0</i>
  <separator name="electronic exchange-correlation" >
   <i type="string" name="GGA">--</i>
   <i type="int" name="VOSKOWN">     0</i>
   <i type="logical" name="LHFCALC"> F  </i>
   <i type="string" name="PRECFOCK"></i>
   <i type="logical" name="LSYMGRAD"> F  </i>
   <i type="logical" name="LHFONE"> F  </i>
   <i type="logical" name="LRHFCALC"> F  </i>
   <i type="logical" name="LTHOMAS"> F  </i>
   <i type="logical" name="LMODELHF"> F  </i>
   <i name="ENCUT4O">     -1.00000000</i>
   <i type="int" name="EXXOEP">     0</i>
   <i type="int" name="FOURORBIT">     0</i>
   <i name="AEXX">      0.00000000</i>
   <i name="HFALPHA">      0.00000000</i>
   <i name="MCALPHA">      0.00000000</i>
   <i name="ALDAX">      1.00000000</i>
   <i name="AGGAX">      1.00000000</i>
   <i name="ALDAC">      1.00000000</i>
   <i name="AGGAC">      1.00000000</i>
   <i type="int" name="NKREDX">     1</i>
   <i type="int" name="NKREDY">     1</i>
   <i type="int" name="NKREDZ">     1</i>
   <i type="logical" name="SHIFTRED"> F  </i>
   <i type="logical" name="ODDONLY"> F  </i>
   <i type="logical" name="EVENONLY"> F  </i>
   <i type="int" name="LMAXFOCK">     0</i>
   <i type="int" name="NMAXFOCKAE">     0</i>
   <i type="logical" name="LFOCKAEDFT"> F  </i>
   <i name="HFSCREEN">      0.00000000</i>
   <i name="HFSCREENC">      0.00000000</i>
   <i type="int" name="NBANDSGWLOW">     0</i>
  </separator>
  <separator name="vdW DFT" >
   <i type="logical" name="LUSE_VDW"> F  </i>
   <i name="Zab_VDW">     -0.84910000</i>
   <i name="PARAM1">      0.12340000</i>
   <i name="PARAM2">      1.00000000</i>
   <i name="PARAM3">      0.00000000</i>
  </separator>
  <separator name="model GW" >
   <i type="int" name="MODEL_GW">     0</i>
   <i name="MODEL_EPS0">      7.31681875</i>
   <i name="MODEL_ALPHA">      1.00000000</i>
  </separator>
  <separator name="linear response parameters" >
   <i type="logical" name="LEPSILON"> T  </i>
   <i type="logical" name="LRPA"> F  </i>
   <i type="logical" name="LNABLA"> F  </i>
   <i type="logical" name="LVEL"> F  </i>
   <i type="int" name="KINTER">     0</i>
   <i name="CSHIFT">      0.10000000</i>
   <i name="OMEGAMAX">     -1.00000000</i>
   <i name="DEG_THRESHOLD">      0.00200000</i>
   <i name="RTIME">     -0.10000000</i>
   <i name="WPLASMAI">      0.00000000</i>
   <v name="DFIELD">      0.00000000      0.00000000      0.00000000</v>
   <v name="WPLASMA">      0.00000000      0.00000000      0.00000000      0.00000000      0.00000000      0.00000000      0.00000000      0.00000000      0.00000000</v>
  </separator>
  <separator name="orbital magnetization" >
   <i type="logical" name="NUCIND"> F  </i>
   <v name="MAGPOS">      0.00000000      0.00000000      0.00000000</v>
   <i type="logical" name="LNICSALL"> T  </i>
   <i type="logical" name="ORBITALMAG"> F  </i>
   <i type="logical" name="LMAGBLOCH"> F  </i>
   <i type="logical" name="LCHIMAG"> F  </i>
   <i type="logical" name="LGAUGE"> T  </i>
   <i type="int" name="MAGATOM">     0</i>
   <v name="MAGDIPOL">      0.00000000      0.00000000      0.00000000</v>
   <v name="AVECCONST">      0.00000000      0.00000000      0.00000000</v>
  </separator>
  <separator name="response functions" >
   <i type="logical" name="LADDER"> F  </i>
   <i type="logical" name="LRPAFORCE"> F  </i>
   <i type="logical" name="LFXC"> F  </i>
   <i type="logical" name="LHARTREE"> T  </i>
   <i type="int" name="IBSE">     0</i>
   <v type="int" name="KPOINT">    -1     0     0     0</v>
   <i type="logical" name="LTCTE"> F  </i>
   <i type="logical" name="LTETE"> F  </i>
   <i type="logical" name="LTRIPLET"> F  </i>
   <i type="logical" name="LFXCEPS"> F  </i>
   <i type="logical" name="LFXHEG"> F  </i>
   <i type="int" name="NATURALO">     2</i>
   <i type="logical" name="L2ORDER"> F  </i>
   <i type="logical" name="LMP2LT"> F  </i>
   <i type="logical" name="LUSEW"> F  </i>
   <i name="ENCUTGW">     -2.00000000</i>
   <i name="ENCUTGWSOFT">     -2.00000000</i>
   <i name="ENCUTLF">     -1.00000000</i>
   <i type="int" name="LMAXMP2">    -1</i>
   <i name="SCISSOR">      0.00000000</i>
   <i type="int" name="NOMEGA">     0</i>
   <i type="int" name="NOMEGAR">     0</i>
   <i type="int" name="NBANDSGW">    -1</i>
   <i type="int" name="NBANDSO">    -1</i>
   <i type="int" name="NBANDSV">    -1</i>
   <i type="int" name="NELM">     1</i>
   <i type="int" name="NELMHF">     1</i>
   <i type="int" name="DIM">     3</i>
   <i type="int" name="ANTIRES">     0</i>
   <i name="OMEGAMAX">    -30.00000000</i>
   <i name="OMEGAMIN">    -30.00000000</i>
   <i name="OMEGATL">   -200.00000000</i>
   <i type="int" name="OMEGAGRID">   140</i>
   <i name="CSHIFT">     -0.10000000</i>
   <i type="logical" name="SELFENERGY"> F  </i>
   <i type="logical" name="LSPECTRAL"> F  </i>
   <i type="logical" name="LSPECTRALGW"> F  </i>
   <i type="logical" name="LSINGLES"> F  </i>
   <i type="logical" name="LFERMIGW"> F  </i>
   <i type="logical" name="ODDONLYGW"> F  </i>
   <i type="logical" name="EVENONLYGW"> F  </i>
   <i type="int" name="NKREDLFX">     1</i>
   <i type="int" name="NKREDLFY">     1</i>
   <i type="int" name="NKREDLFZ">     1</i>
   <i type="int" name="MAXMEM">  2800</i>
   <i type="int" name="TELESCOPE">     0</i>
   <i type="int" name="TAUPAR">     1</i>
   <i type="int" name="OMEGAPAR">    -1</i>
   <i name="LAMBDA">      1.00000000</i>
  </separator>
  <separator name="External order field" >
   <i name="OFIELD_KAPPA">      0.00000000</i>
   <v name="OFIELD_K">      0.00000000      0.00000000      0.00000000</v>
   <i name="OFIELD_Q6_NEAR">      0.00000000</i>
   <i name="OFIELD_Q6_FAR">      0.00000000</i>
   <i name="OFIELD_A">      0.00000000</i>
  </separator>
 </parameters>
 <atominfo>
  <atoms>      12 </atoms>
  <types>       3 </types>
  <array name="atoms" >
   <dimension dim="1">ion</dimension>
   <field type="string">element</field>
   <field type="int">atomtype</field>
   <set>
    <rc><c>Na</c><c>   1</c></rc>
    <rc><c>Na</c><c>   1</c></rc>
    <rc><c>S </c><c>   2</c></rc>
    <rc><c>S </c><c>   2</c></rc>
    <rc><c>O </c><c>   3</c></rc>
    <rc><c>O </c><c>   3</c></rc>
    <rc><c>O </c><c>   3</c></rc>
    <rc><c>O </c><c>   3</c></rc>
    <rc><c>O </c><c>   3</c></rc>
    <rc><c>O </c><c>   3</c></rc>
    <rc><c>O </c><c>   3</c></rc>
    <rc><c>O </c><c>   3</c></rc>
   </set>
  </array>
  <array name="atomtypes" >
   <dimension dim="1">type</dimension>
   <field type="int">atomspertype</field>
   <field type="string">element</field>
   <field>mass</field>
   <field>valence</field>
   <field type="string">pseudopotential</field>
   <set>
    <rc><c>   2</c><c>Na</c><c>     22.99000000</c><c>      7.00000000</c><c>  PAW_PBE Na_pv 19Sep2006               </c></rc>
    <rc><c>   2</c><c>S </c><c>     32.06600000</c><c>      6.00000000</c><c>  PAW_PBE S 06Sep2000                   </c></rc>
    <rc><c>   8</c><c>O </c><c>     16.00000000</c><c>      6.00000000</c><c>  PAW_PBE O 08Apr2002                   </c></rc>
   </set>
  </array>
 </atominfo>
 <structure name="initialpos" >
  <crystal>
   <varray name="basis" >
    <v>       4.70704855       0.01629280      -0.01563500 </v>
    <v>      -0.68993696       5.43783605       0.01221647 </v>
    <v>      -1.40713747      -1.41812530       5.71670864 </v>
   </varray>
   <i name="volume">    146.33637498 </i>
   <varray name="rec_basis" >
    <v>       0.21255036       0.02683528       0.05897508 </v>
    <v>      -0.00048497       0.18373302       0.04545868 </v>
    <v>       0.00058235      -0.00031924       0.17498998 </v>
   </varray>
  </crystal>
  <varray name="positions" >
   <v>       0.04137990       0.31330337       0.21203720 </v>
   <v>       0.95862010       0.68669663       0.78796280 </v>
   <v>       0.61152980       0.77684384       0.24278990 </v>
   <v>       0.38847020       0.22315616       0.75721010 </v>
   <v>       0.58093506       0.04044492       0.41658179 </v>
   <v>       0.41906494       0.95955508       0.58341821 </v>
   <v>       0.77481485       0.89777391       0.10646541 </v>
   <v>       0.22518515       0.10222609       0.89353459 </v>
   <v>       0.31057741       0.64788650       0.11961946 </v>
   <v>       0.68942259       0.35211350       0.88038054 </v>
   <v>       0.77429830       0.63352911       0.39075396 </v>
   <v>       0.22570170       0.36647089       0.60924604 </v>
  </varray>
  <varray name="velocities" >
   <v>       0.00000000       0.00000000       0.00000000 </v>
   <v>       0.00000000       0.00000000       0.00000000 </v>
   <v>       0.00000000       0.00000000       0.00000000 </v>
   <v>       0.00000000       0.00000000       0.00000000 </v>
   <v>       0.00000000       0.00000000       0.00000000 </v>
   <v>       0.00000000       0.00000000       0.00000000 </v>
   <v>       0.00000000       0.00000000       0.00000000 </v>
   <v>       0.00000000       0.00000000       0.00000000 </v>
   <v>       0.00000000       0.00000000       0.00000000 </v>
   <v>       0.00000000       0.00000000       0.00000000 </v>
   <v>       0.00000000       0.00000000       0.00000000 </v>
   <v>       0.00000000       0.00000000       0.00000000 </v>
  </varray>
 </structure>
 <calculation>
  <scstep>
   <time name="dav">   15.48   15.67</time>
   <time name="total">   15.65   15.84</time>
   <energy>
    <i name="alphaZ">    163.18546138 </i>
    <i name="ewald">  -3463.14432758 </i>
    <i name="hartreedc">  -1657.54425565 </i>
    <i name="XCdc">    300.18538770 </i>
    <i name="pawpsdc">   4212.05979638 </i>
    <i name="pawaedc">  -4397.21421078 </i>
    <i name="eentropy">      0.00000000 </i>
    <i name="bandstr">    -40.13312911 </i>
    <i name="atom">   5544.62445944 </i>
    <i name="e_fr_energy">    662.01918177 </i>
    <i name="e_wo_entrp">    662.01918177 </i>
    <i name="e_0_energy">    662.01918177 </i>
   </energy>
  </scstep>
  <scstep>
   <time name="dav">   18.46   18.48</time>
   <time name="total">   18.47   18.49</time>
   <energy>
    <i name="e_fr_energy">    -41.37030129 </i>
    <i name="e_wo_entrp">    -41.37030129 </i>
    <i name="e_0_energy">    -41.37030129 </i>
   </energy>
  </scstep>
  <scstep>
   <time name="dav">   21.02   21.04</time>
   <time name="total">   21.04   21.06</time>
   <energy>
    <i name="e_fr_energy">    -77.15645213 </i>
    <i name="e_wo_entrp">    -77.15645213 </i>
    <i name="e_0_energy">    -77.15645213 </i>
   </energy>
  </scstep>
  <scstep>
   <time name="dav">   17.28   17.46</time>
   <time name="total">   17.28   17.46</time>
   <energy>
    <i name="e_fr_energy">    -77.58652204 </i>
    <i name="e_wo_entrp">    -77.58652204 </i>
    <i name="e_0_energy">    -77.58652204 </i>
   </energy>
  </scstep>
  <scstep>
   <time name="dav">   21.00   21.17</time>
   <time name="total">   21.34   21.51</time>
   <energy>
    <i name="e_fr_energy">    -77.59548507 </i>
    <i name="e_wo_entrp">    -77.59548507 </i>
    <i name="e_0_energy">    -77.59548507 </i>
   </energy>
  </scstep>
  <scstep>
   <time name="diag">    3.99    3.99</time>
   <time name="diis">    3.96    4.01</time>
   <time name="orth">    0.43    0.43</time>
   <time name="total">    8.80    8.88</time>
   <energy>
    <i name="e_fr_energy">    -68.48179969 </i>
    <i name="e_wo_entrp">    -68.48179969 </i>
    <i name="e_0_energy">    -68.48179969 </i>
   </energy>
  </scstep>
  <scstep>
   <time name="diag">    3.96    3.99</time>
   <time name="diis">    5.18    5.22</time>
   <time name="orth">    0.43    0.43</time>
   <time name="total">   10.05   10.13</time>
   <energy>
    <i name="e_fr_energy">    -67.47599606 </i>
    <i name="e_wo_entrp">    -67.47599606 </i>
    <i name="e_0_energy">    -67.47599606 </i>
   </energy>
  </scstep>
  <scstep>
   <time name="diag">    3.85    3.92</time>
   <time name="diis">    4.74    4.78</time>
   <time name="orth">    0.44    0.44</time>
   <time name="total">    9.48    9.59</time>
   <energy>
    <i name="e_fr_energy">    -67.44740306 </i>
    <i name="e_wo_entrp">    -67.44740306 </i>
    <i name="e_0_energy">    -67.44740306 </i>
   </energy>
  </scstep>
  <scstep>
   <time name="diag">    3.99    4.03</time>
   <time name="diis">    4.79    4.96</time>
   <time name="orth">    0.48    0.48</time>
   <time name="total">    9.67    9.91</time>
   <energy>
    <i name="e_fr_energy">    -67.44505451 </i>
    <i name="e_wo_entrp">    -67.44505451 </i>
    <i name="e_0_energy">    -67.44505451 </i>
   </energy>
  </scstep>
  <scstep>
   <time name="diag">    4.03    4.03</time>
   <time name="diis">    4.93    4.98</time>
   <time name="orth">    0.45    0.45</time>
   <time name="total">    9.85    9.91</time>
   <energy>
    <i name="e_fr_energy">    -67.44602032 </i>
    <i name="e_wo_entrp">    -67.44602032 </i>
    <i name="e_0_energy">    -67.44602032 </i>
   </energy>
  </scstep>
  <scstep>
   <time name="diag">    4.12    4.17</time>
   <time name="diis">    5.15    5.19</time>
   <time name="orth">    0.40    0.40</time>
   <time name="total">   10.12   10.20</time>
   <energy>
    <i name="e_fr_energy">    -67.44614767 </i>
    <i name="e_wo_entrp">    -67.44614767 </i>
    <i name="e_0_energy">    -67.44614767 </i>
   </energy>
  </scstep>
  <scstep>
   <time name="diag">    4.05    4.05</time>
   <time name="diis">    5.35    5.36</time>
   <time name="orth">    0.44    0.44</time>
   <time name="total">   10.28   10.29</time>
   <energy>
    <i name="e_fr_energy">    -67.44622709 </i>
    <i name="e_wo_entrp">    -67.44622709 </i>
    <i name="e_0_energy">    -67.44622709 </i>
   </energy>
  </scstep>
  <scstep>
   <time name="diag">    3.97    3.97</time>
   <time name="diis">    5.53    5.57</time>
   <time name="orth">    0.26    0.26</time>
   <time name="total">   10.25   10.30</time>
   <energy>
    <i name="e_fr_energy">    -67.44622776 </i>
    <i name="e_wo_entrp">    -67.44622776 </i>
    <i name="e_0_energy">    -67.44622776 </i>
   </energy>
  </scstep>
  <scstep>
   <time name="diag">    4.13    4.16</time>
   <time name="diis">    5.75    5.79</time>
   <time name="orth">    0.39    0.39</time>
   <time name="total">   10.71   10.79</time>
   <energy>
    <i name="e_fr_energy">    -67.44622832 </i>
    <i name="e_wo_entrp">    -67.44622832 </i>
    <i name="e_0_energy">    -67.44622832 </i>
   </energy>
  </scstep>
  <scstep>
   <time name="diag">    4.29    4.33</time>
   <time name="diis">    5.87    5.97</time>
   <time name="orth">    0.41    0.41</time>
   <time name="total">   10.69   10.82</time>
   <energy>
    <i name="alphaZ">    163.18546138 </i>
    <i name="ewald">  -3463.14432758 </i>
    <i name="hartreedc">  -1746.12942742 </i>
    <i name="XCdc">    307.93668510 </i>
    <i name="pawpsdc">  11813.17826912 </i>
    <i name="pawaedc"> -11999.81251973 </i>
    <i name="eentropy">      0.00000000 </i>
    <i name="bandstr">   -687.28482865 </i>
    <i name="atom">   5544.62445944 </i>
    <i name="e_fr_energy">    -67.44622834 </i>
    <i name="e_wo_entrp">    -67.44622834 </i>
    <i name="e_0_energy">    -67.44622834 </i>
   </energy>
  </scstep>
  <structure>
   <crystal>
    <varray name="basis" >
     <v>       4.70704855       0.01629280      -0.01563500 </v>
     <v>      -0.68993696       5.43783605       0.01221647 </v>
     <v>      -1.40713747      -1.41812530       5.71670864 </v>
    </varray>
    <i name="volume">    146.33637498 </i>
    <varray name="rec_basis" >
     <v>       0.21255036       0.02683528       0.05897508 </v>
     <v>      -0.00048497       0.18373302       0.04545868 </v>
     <v>       0.00058235      -0.00031924       0.17498998 </v>
    </varray>
   </crystal>
   <varray name="positions" >
    <v>       0.04137990       0.31330337       0.21203720 </v>
    <v>       0.95862010       0.68669663       0.78796280 </v>
    <v>       0.61152980       0.77684384       0.24278990 </v>
    <v>       0.38847020       0.22315616       0.75721010 </v>
[...]
       <r>   -1.6401    1.0000 </r>
       <r>   -1.2919    1.0000 </r>
       <r>   -1.2358    1.0000 </r>
       <r>   -0.9899    1.0000 </r>
       <r>   -0.8762    1.0000 </r>
       <r>   -0.3726    1.0000 </r>
       <r>    0.2530    1.0000 </r>
       <r>    0.2993    1.0000 </r>
       <r>    0.4945    1.0000 </r>
       <r>    4.3209    0.0000 </r>
       <r>    7.3723    0.0000 </r>
       <r>    8.0415    0.0000 </r>
       <r>    8.3459    0.0000 </r>
       <r>    8.7819    0.0000 </r>
       <r>   10.0921    0.0000 </r>
       <r>   10.2722    0.0000 </r>
       <r>   10.5906    0.0000 </r>
       <r>   10.6984    0.0000 </r>
       <r>   10.9939    0.0000 </r>
       <r>   11.3302    0.0000 </r>
      </set>
      <set comment="kpoint 106">
       <r>  -22.9669    1.0000 </r>
       <r>  -22.2502    1.0000 </r>
       <r>  -20.3724    1.0000 </r>
       <r>  -19.7543    1.0000 </r>
       <r>  -19.7225    1.0000 </r>
       <r>  -19.7151    1.0000 </r>
       <r>  -19.6881    1.0000 </r>
       <r>  -19.6839    1.0000 </r>
       <r>  -19.6588    1.0000 </r>
       <r>  -18.4459    1.0000 </r>
       <r>  -18.3868    1.0000 </r>
       <r>  -18.2312    1.0000 </r>
       <r>  -18.2078    1.0000 </r>
       <r>  -16.3157    1.0000 </r>
       <r>   -8.7633    1.0000 </r>
       <r>   -7.8917    1.0000 </r>
       <r>   -6.6292    1.0000 </r>
       <r>   -6.2437    1.0000 </r>
       <r>   -5.2187    1.0000 </r>
       <r>   -5.0331    1.0000 </r>
       <r>   -4.8507    1.0000 </r>
       <r>   -4.6575    1.0000 </r>
       <r>   -3.6060    1.0000 </r>
       <r>   -3.4672    1.0000 </r>
       <r>   -2.3542    1.0000 </r>
       <r>   -2.2256    1.0000 </r>
       <r>   -1.9760    1.0000 </r>
       <r>   -1.7623    1.0000 </r>
       <r>   -1.6799    1.0000 </r>
       <r>   -1.4389    1.0000 </r>
       <r>   -1.2052    1.0000 </r>
       <r>   -1.0063    1.0000 </r>
       <r>   -0.9047    1.0000 </r>
       <r>   -0.3768    1.0000 </r>
       <r>    0.1760    1.0000 </r>
       <r>    0.2167    1.0000 </r>
       <r>    0.5778    1.0000 </r>
       <r>    4.3128    0.0000 </r>
       <r>    7.1979    0.0000 </r>
       <r>    8.0265    0.0000 </r>
       <r>    8.3236    0.0000 </r>
       <r>    8.6876    0.0000 </r>
       <r>    9.9672    0.0000 </r>
       <r>   10.2982    0.0000 </r>
       <r>   10.6545    0.0000 </r>
       <r>   10.8361    0.0000 </r>
       <r>   10.8959    0.0000 </r>
       <r>   11.3139    0.0000 </r>
      </set>
     </set>
    </set>
   </array>
  </eigenvalues>
  <separator name="orbital magnetization" >
   <v name="MAGDIPOLOUT">      0.00000000      0.00000000      0.00000000</v>
  </separator>
  <dos>
   <i name="efermi">      0.66904516 </i>
   <total>
    <array>
     <dimension dim="1">gridpoints</dimension>
     <dimension dim="2">spin</dimension>
     <field>energy</field>
     <field>total</field>
     <field>integrated</field>
     <set>
      <set comment="spin 1">
       <r>   -24.7547     0.0000     0.0000 </r>
       <r>   -24.6272     0.0000     0.0000 </r>
       <r>   -24.4998     0.0000     0.0000 </r>
       <r>   -24.3724     0.0000     0.0000 </r>
       <r>   -24.2449     0.0000     0.0000 </r>
       <r>   -24.1175     0.0000     0.0000 </r>
       <r>   -23.9901     0.0000     0.0000 </r>
       <r>   -23.8626     0.0000     0.0000 </r>
       <r>   -23.7352     0.0000     0.0000 </r>
       <r>   -23.6077     0.0000     0.0000 </r>
       <r>   -23.4803     0.0000     0.0000 </r>
       <r>   -23.3529     0.0000     0.0000 </r>
       <r>   -23.2254     0.0000     0.0000 </r>
       <r>   -23.0980     0.0000     0.0000 </r>
       <r>   -22.9706    25.4832     0.5448 </r>
       <r>   -22.8431     0.0000     2.0000 </r>
       <r>   -22.7157     0.0000     2.0000 </r>
       <r>   -22.5882     0.0000     2.0000 </r>
       <r>   -22.4608     0.0000     2.0000 </r>
       <r>   -22.3334     0.0000     2.0000 </r>
       <r>   -22.2059    17.2471     3.5471 </r>
       <r>   -22.0785     0.0000     4.0000 </r>
       <r>   -21.9511     0.0000     4.0000 </r>
       <r>   -21.8236     0.0000     4.0000 </r>
       <r>   -21.6962     0.0000     4.0000 </r>
       <r>   -21.5688     0.0000     4.0000 </r>
       <r>   -21.4413     0.0000     4.0000 </r>
       <r>   -21.3139     0.0000     4.0000 </r>
       <r>   -21.1864     0.0000     4.0000 </r>
       <r>   -21.0590     0.0000     4.0000 </r>
       <r>   -20.9316     0.0000     4.0000 </r>
       <r>   -20.8041     0.0000     4.0000 </r>
       <r>   -20.6767     0.0000     4.0000 </r>
       <r>   -20.5493     0.0000     4.0000 </r>
       <r>   -20.4218     0.0000     4.0000 </r>
       <r>   -20.2944     0.0000     6.0000 </r>
       <r>   -20.1669     0.0000     6.0000 </r>
       <r>   -20.0395     0.0000     6.0000 </r>
       <r>   -19.9121     0.0000     6.0000 </r>
       <r>   -19.7846     0.0000     6.0000 </r>
       <r>   -19.6572    52.3273    17.8029 </r>
       <r>   -19.5298     0.0000    18.0000 </r>
       <r>   -19.4023     0.0000    18.0000 </r>
       <r>   -19.2749     0.0000    18.0000 </r>
       <r>   -19.1474     0.0000    18.0000 </r>
       <r>   -19.0200     0.0000    18.0000 </r>
       <r>   -18.8926     0.0000    18.0000 </r>
       <r>   -18.7651     0.0000    18.0000 </r>
       <r>   -18.6377     0.0000    18.0000 </r>
       <r>   -18.5103     0.0000    18.0000 </r>
       <r>   -18.3828    30.1459    21.3687 </r>
       <r>   -18.2554    27.7788    22.2737 </r>
       <r>   -18.1279     0.0000    26.0000 </r>
       <r>   -18.0005     0.0000    26.0000 </r>
       <r>   -17.8731     0.0000    26.0000 </r>
       <r>   -17.7456     0.0000    26.0000 </r>
       <r>   -17.6182     0.0000    26.0000 </r>
       <r>   -17.4908     0.0000    26.0000 </r>
       <r>   -17.3633     0.0000    26.0000 </r>
       <r>   -17.2359     0.0000    26.0000 </r>
       <r>   -17.1084     0.0000    26.0000 </r>
       <r>   -16.9810     0.0000    26.0000 </r>
       <r>   -16.8536     0.0000    26.0000 </r>
       <r>   -16.7261     0.0000    26.0000 </r>
       <r>   -16.5987     0.0000    26.0000 </r>
       <r>   -16.4713     0.0000    26.0000 </r>
       <r>   -16.3438    25.1332    26.2208 </r>
       <r>   -16.2164     0.0000    28.0000 </r>
       <r>   -16.0889     0.0000    28.0000 </r>
       <r>   -15.9615     0.0000    28.0000 </r>
       <r>   -15.8341     0.0000    28.0000 </r>
       <r>   -15.7066     0.0000    28.0000 </r>
       <r>   -15.5792     0.0000    28.0000 </r>
       <r>   -15.4518     0.0000    28.0000 </r>
       <r>   -15.3243     0.0000    28.0000 </r>
       <r>   -15.1969     0.0000    28.0000 </r>
       <r>   -15.0695     0.0000    28.0000 </r>
       <r>   -14.9420     0.0000    28.0000 </r>
       <r>   -14.8146     0.0000    28.0000 </r>
       <r>   -14.6871     0.0000    28.0000 </r>
       <r>   -14.5597     0.0000    28.0000 </r>
       <r>   -14.4323     0.0000    28.0000 </r>
       <r>   -14.3048     0.0000    28.0000 </r>
       <r>   -14.1774     0.0000    28.0000 </r>
       <r>   -14.0500     0.0000    28.0000 </r>
       <r>   -13.9225     0.0000    28.0000 </r>
       <r>   -13.7951     0.0000    28.0000 </r>
       <r>   -13.6676     0.0000    28.0000 </r>
       <r>   -13.5402     0.0000    28.0000 </r>
       <r>   -13.4128     0.0000    28.0000 </r>
       <r>   -13.2853     0.0000    28.0000 </r>
       <r>   -13.1579     0.0000    28.0000 </r>
       <r>   -13.0305     0.0000    28.0000 </r>
       <r>   -12.9030     0.0000    28.0000 </r>
       <r>   -12.7756     0.0000    28.0000 </r>
       <r>   -12.6481     0.0000    28.0000 </r>
       <r>   -12.5207     0.0000    28.0000 </r>
       <r>   -12.3933     0.0000    28.0000 </r>
       <r>   -12.2658     0.0000    28.0000 </r>
       <r>   -12.1384     0.0000    28.0000 </r>
       <r>   -12.0110     0.0000    28.0000 </r>
       <r>   -11.8835     0.0000    28.0000 </r>
       <r>   -11.7561     0.0000    28.0000 </r>
       <r>   -11.6286     0.0000    28.0000 </r>
       <r>   -11.5012     0.0000    28.0000 </r>
       <r>   -11.3738     0.0000    28.0000 </r>
       <r>   -11.2463     0.0000    28.0000 </r>
       <r>   -11.1189     0.0000    28.0000 </r>
       <r>   -10.9915     0.0000    28.0000 </r>
       <r>   -10.8640     0.0000    28.0000 </r>
       <r>   -10.7366     0.0000    28.0000 </r>
       <r>   -10.6091     0.0000    28.0000 </r>
       <r>   -10.4817     0.0000    28.0000 </r>
       <r>   -10.3543     0.0000    28.0000 </r>
       <r>   -10.2268     0.0000    28.0000 </r>
       <r>   -10.0994     0.0000    28.0000 </r>
       <r>    -9.9720     0.0000    28.0000 </r>
       <r>    -9.8445     0.0000    28.0000 </r>
       <r>    -9.7171     0.0000    28.0000 </r>
       <r>    -9.5897     0.0000    28.0000 </r>
       <r>    -9.4622     0.0000    28.0000 </r>
       <r>    -9.3348     0.0000    28.0000 </r>
       <r>    -9.2073     0.0000    28.0000 </r>
       <r>    -9.0799     0.0000    28.0000 </r>
       <r>    -8.9525     0.0000    28.0000 </r>
       <r>    -8.8250     2.7098    28.0927 </r>
       <r>    -8.6976    13.8154    29.2761 </r>
       <r>    -8.5702     0.0000    30.0000 </r>
       <r>    -8.4427     0.0000    30.0000 </r>
       <r>    -8.3153     0.0000    30.0000 </r>
       <r>    -8.1878     0.0000    30.0000 </r>
       <r>    -8.0604     0.6812    30.0061 </r>
       <r>    -7.9330     8.3347    30.6902 </r>
       <r>    -7.8055     3.7507    31.9644 </r>
       <r>    -7.6781     0.0000    32.0000 </r>
       <r>    -7.5507     0.0000    32.0000 </r>
       <r>    -7.4232     0.0000    32.0000 </r>
       <r>    -7.2958     0.0000    32.0000 </r>
       <r>    -7.1683     0.0000    32.0000 </r>
       <r>    -7.0409     0.0000    32.0000 </r>
       <r>    -6.9135     0.0000    32.0000 </r>
       <r>    -6.7860     0.0000    32.0000 </r>
       <r>    -6.6586     3.1918    32.1453 </r>
       <r>    -6.5312     6.6850    33.2043 </r>
       <r>    -6.4037     4.0569    33.8470 </r>
       <r>    -6.2763    12.7079    34.2322 </r>
       <r>    -6.1488     6.2296    35.8774 </r>
       <r>    -6.0214     0.0000    36.0000 </r>
       <r>    -5.8940     0.0000    36.0000 </r>
       <r>    -5.7665     0.0000    36.0000 </r>
       <r>    -5.6391     0.0000    36.0000 </r>
       <r>    -5.5117     0.0000    36.0000 </r>
       <r>    -5.3842     3.1953    36.0281 </r>
       <r>    -5.2568    12.9024    37.1203 </r>
       <r>    -5.1293     5.7879    38.2826 </r>
       <r>    -5.0019     7.6058    39.6520 </r>
       <r>    -4.8745    11.8391    40.7459 </r>
       <r>    -4.7470     5.0987    41.9678 </r>
       <r>    -4.6196    13.3113    43.1468 </r>
       <r>    -4.4922     0.0000    44.0000 </r>
       <r>    -4.3647     0.0000    44.0000 </r>
       <r>    -4.2373     0.0000    44.0000 </r>
       <r>    -4.1099     0.0000    44.0000 </r>
       <r>    -3.9824     0.0000    44.0000 </r>
       <r>    -3.8550     0.0000    44.0000 </r>
       <r>    -3.7275     5.2862    44.4172 </r>
       <r>    -3.6001     8.6844    45.4168 </r>
       <r>    -3.4727    15.8199    46.5553 </r>
       <r>    -3.3452     0.0000    48.0000 </r>
       <r>    -3.2178     0.0000    48.0000 </r>
       <r>    -3.0904     0.0000    48.0000 </r>
       <r>    -2.9629     0.0000    48.0000 </r>
       <r>    -2.8355     0.0000    48.0000 </r>
       <r>    -2.7080     1.7430    48.0521 </r>
       <r>    -2.5806     4.0404    48.4445 </r>
       <r>    -2.4532     5.5848    49.1219 </r>
       <r>    -2.3257     6.8707    50.0313 </r>
       <r>    -2.1983    14.8206    51.6453 </r>
       <r>    -2.0709    13.3534    52.4738 </r>
       <r>    -1.9434     6.2534    53.9012 </r>
       <r>    -1.8160    12.1770    55.1083 </r>
       <r>    -1.6885    13.2838    56.5267 </r>
       <r>    -1.5611     5.3291    57.8313 </r>
       <r>    -1.4337     9.5706    58.8008 </r>
       <r>    -1.3062     7.9410    59.7380 </r>
       <r>    -1.1788    15.8787    60.9925 </r>
       <r>    -1.0514     0.0000    62.0000 </r>
       <r>    -0.9239    24.1729    63.4194 </r>
       <r>    -0.7965    22.5939    65.1824 </r>
       <r>    -0.6690     0.0000    66.0000 </r>
       <r>    -0.5416     0.0000    66.0000 </r>
       <r>    -0.4142    11.6583    66.1911 </r>
       <r>    -0.2867     0.0000    68.0000 </r>
       <r>    -0.1593     0.0000    68.0000 </r>
       <r>    -0.0319     0.0000    68.0000 </r>
       <r>     0.0956     0.0000    68.0000 </r>
       <r>     0.2230    16.1000    69.4769 </r>
       <r>     0.3505     8.7890    71.4972 </r>
       <r>     0.4779    10.5565    72.5660 </r>
       <r>     0.6053    10.5163    73.8159 </r>
       <r>     0.7328     0.0000    74.0000 </r>
       <r>     0.8602     0.0000    74.0000 </r>
       <r>     0.9876     0.0000    74.0000 </r>
       <r>     1.1151     0.0000    74.0000 </r>
       <r>     1.2425     0.0000    74.0000 </r>
       <r>     1.3699     0.0000    74.0000 </r>
       <r>     1.4974     0.0000    74.0000 </r>
       <r>     1.6248     0.0000    74.0000 </r>
       <r>     1.7523     0.0000    74.0000 </r>
       <r>     1.8797     0.0000    74.0000 </r>
       <r>     2.0071     0.0000    74.0000 </r>
       <r>     2.1346     0.0000    74.0000 </r>
       <r>     2.2620     0.0000    74.0000 </r>
       <r>     2.3894     0.0000    74.0000 </r>
       <r>     2.5169     0.0000    74.0000 </r>
       <r>     2.6443     0.0000    74.0000 </r>
       <r>     2.7718     0.0000    74.0000 </r>
       <r>     2.8992     0.0000    74.0000 </r>
       <r>     3.0266     0.0000    74.0000 </r>
       <r>     3.1541     0.0000    74.0000 </r>
       <r>     3.2815     0.0000    74.0000 </r>
       <r>     3.4089     0.0000    74.0000 </r>
       <r>     3.5364     0.0000    74.0000 </r>
       <r>     3.6638     0.0000    74.0000 </r>
       <r>     3.7913     0.0000    74.0000 </r>
       <r>     3.9187     0.0000    74.0000 </r>
       <r>     4.0461     0.0000    74.0000 </r>
       <r>     4.1736     0.0000    74.0000 </r>
       <r>     4.3010     0.0000    74.0000 </r>
       <r>     4.4284     0.0000    76.0000 </r>
       <r>     4.5559     0.0000    76.0000 </r>
       <r>     4.6833     0.0000    76.0000 </r>
       <r>     4.8108     0.0000    76.0000 </r>
       <r>     4.9382     0.0000    76.0000 </r>
       <r>     5.0656     0.0000    76.0000 </r>
       <r>     5.1931     0.0000    76.0000 </r>
       <r>     5.3205     0.0000    76.0000 </r>
       <r>     5.4479     0.0000    76.0000 </r>
       <r>     5.5754     0.0000    76.0000 </r>
       <r>     5.7028     0.0000    76.0000 </r>
       <r>     5.8303     0.0000    76.0000 </r>
       <r>     5.9577     0.0000    76.0000 </r>
       <r>     6.0851     0.0000    76.0000 </r>
       <r>     6.2126     0.0000    76.0000 </r>
       <r>     6.3400     0.0000    76.0000 </r>
       <r>     6.4674     0.0346    76.0012 </r>
       <r>     6.5949     0.1788    76.0136 </r>
       <r>     6.7223     0.3436    76.0490 </r>
       <r>     6.8498     0.4317    76.0978 </r>
       <r>     6.9772     0.5565    76.1605 </r>
       <r>     7.1046     0.7208    76.2415 </r>
       <r>     7.2321     0.9651    76.3472 </r>
       <r>     7.3595     1.5904    76.5053 </r>
       <r>     7.4869     2.4812    76.7588 </r>
       <r>     7.6144     5.1242    77.2644 </r>
       <r>     7.7418     3.5384    77.9501 </r>
       <r>     7.8692     2.1735    78.1881 </r>
       <r>     7.9967     8.5570    78.7267 </r>
       <r>     8.1241     3.7374    79.6902 </r>
       <r>     8.2516     1.4622    80.0159 </r>
       <r>     8.3790     9.5480    80.9688 </r>
       <r>     8.5064     4.7211    81.8224 </r>
       <r>     8.6339     6.3286    82.4919 </r>
       <r>     8.7613     5.9517    83.3567 </r>
       <r>     8.8887     1.9027    83.8230 </r>
       <r>     9.0162     0.7094    83.9589 </r>
       <r>     9.1436     0.0119    83.9999 </r>
       <r>     9.2711     0.0000    84.0000 </r>
       <r>     9.3985     0.0000    84.0000 </r>
       <r>     9.5259     0.0000    84.0000 </r>
       <r>     9.6534     0.1372    84.0008 </r>
       <r>     9.7808     5.2695    84.2424 </r>
       <r>     9.9082     6.7237    85.0608 </r>
       <r>    10.0357     4.4182    85.8114 </r>
       <r>    10.1631     8.9498    86.5266 </r>
       <r>    10.2906     6.4132    87.6191 </r>
       <r>    10.4180     6.9253    88.3616 </r>
       <r>    10.5454     5.9142    89.2785 </r>
       <r>    10.6729     6.3781    90.0684 </r>
       <r>    10.8003     8.0396    90.8573 </r>
       <r>    10.9277     9.7736    92.0008 </r>
       <r>    11.0552     5.1063    93.0309 </r>
       <r>    11.1826     6.1475    93.8032 </r>
       <r>    11.3101     6.5357    94.5341 </r>
       <r>    11.4375     4.2623    95.3993 </r>
       <r>    11.5649     2.0234    95.8144 </r>
       <r>    11.6924     0.6814    95.9888 </r>
       <r>    11.8198     0.0000    96.0000 </r>
       <r>    11.9472     0.0000    96.0000 </r>
       <r>    12.0747     0.0000    96.0000 </r>
       <r>    12.2021     0.0000    96.0000 </r>
       <r>    12.3296     0.0000    96.0000 </r>
       <r>    12.4570     0.0000    96.0000 </r>
       <r>    12.5844     0.0000    96.0000 </r>
       <r>    12.7119     0.0000    96.0000 </r>
       <r>    12.8393     0.0000    96.0000 </r>
       <r>    12.9667     0.0000    96.0000 </r>
       <r>    13.0942     0.0000    96.0000 </r>
       <r>    13.2216     0.0000    96.0000 </r>
       <r>    13.3490     0.0000    96.0000 </r>
       <r>    13.4765     0.0000    96.0000 </r>
      </set>
     </set>
    </array>
   </total>
  </dos>
 </calculation>
 <structure name="finalpos" >
  <crystal>
   <varray name="basis" >
    <v>       4.70704855       0.01629280      -0.01563500 </v>
    <v>      -0.68993696       5.43783605       0.01221647 </v>
    <v>      -1.40713747      -1.41812530       5.71670864 </v>
   </varray>
   <i name="volume">    146.33637498 </i>
   <varray name="rec_basis" >
    <v>       0.21255036       0.02683528       0.05897508 </v>
    <v>      -0.00048497       0.18373302       0.04545868 </v>
    <v>       0.00058235      -0.00031924       0.17498998 </v>
   </varray>
  </crystal>
  <varray name="positions" >
   <v>       0.04137990       0.31330337       0.21203720 </v>
   <v>       0.95862010       0.68669663       0.78796280 </v>
   <v>       0.61152980       0.77684384       0.24278990 </v>
   <v>       0.38847020       0.22315616       0.75721010 </v>
   <v>       0.58093506       0.04044492       0.41658179 </v>
   <v>       0.41906494       0.95955508       0.58341821 </v>
   <v>       0.77481485       0.89777391       0.10646541 </v>
   <v>       0.22518515       0.10222609       0.89353459 </v>
   <v>       0.31057741       0.64788650       0.11961946 </v>
   <v>       0.68942259       0.35211350       0.88038054 </v>
   <v>       0.77429830       0.63352911       0.39075396 </v>
   <v>       0.22570170       0.36647089       0.60924604 </v>
  </varray>
  <varray name="velocities" >
   <v>       0.00000000       0.00000000       0.00000000 </v>
   <v>       0.00000000       0.00000000       0.00000000 </v>
   <v>       0.00000000       0.00000000       0.00000000 </v>
   <v>       0.00000000       0.00000000       0.00000000 </v>
   <v>       0.00000000       0.00000000       0.00000000 </v>
   <v>       0.00000000       0.00000000       0.00000000 </v>
   <v>       0.00000000       0.00000000       0.00000000 </v>
   <v>       0.00000000       0.00000000       0.00000000 </v>
   <v>       0.00000000       0.00000000       0.00000000 </v>
   <v>       0.00000000       0.00000000       0.00000000 </v>
   <v>       0.00000000       0.00000000       0.00000000 </v>
   <v>       0.00000000       0.00000000       0.00000000 </v>
  </varray>
 </structure>
</modeling>
