nqpoint: 1      
natom:   30     
reciprocal_lattice:
- [   0.20945802,   0.12093064,   0.00000000 ] # a*
- [   0.00000000,   0.24186129,   0.00000000 ] # b*
- [   0.00000000,   0.00000000,   0.07685592 ] # c*
phonon:
- q-position: [    0.0000000,    0.0000000,    0.0000000 ]
  dynamical_matrix:
  - [    0.7199358096,   -0.0000000000,    0.0000000000,    0.0000000000,    0.0000000000,    0.0000000000,    0.0024367170,    0.0000000000,    0.0000000000,    0.0000000000,    0.0000000000,    0.0000000000,   -0.0523053170,    0.0000000000,    0.0442922403,    0.0000000000,    0.0000000000,    0.0000000000,   -0.0422903962,    0.0000000000,   -0.0408364658,    0.0000000000,    0.0000000000,    0.0000000000,    0.0003760192,    0.0000000000,   -0.0007471208,    0.0000000000,    0.0000000000,    0.0000000000,   -0.0008707170,    0.0000000000,    0.0000000000,    0.0000000000,    0.0000000000,    0.0000000000,    0.0003377125,    0.0000000000,    0.0001125082,    0.0000000000,   -0.0000000000,    0.0000000000,   -0.0005087300,    0.0000000000,   -0.0000508667,    0.0000000000,    0.0000000000,    0.0000000000,    0.0003760192,    0.0000000000,    0.0007471208,    0.0000000000,   -0.0000000000,    0.0000000000,   -0.1866735231,    0.0000000000,    0.0000000000,    0.0000000000,    0.0000000000,    0.0000000000,    0.0674954582,    0.0000000000,    0.0021411011,    0.0000000000,   -0.0000000000,    0.0000000000,   -0.0422903962,    0.0000000000,   -0.0408364658,    0.0000000000,    0.0000000000,    0.0000000000,   -0.0055234434,    0.0000000000,   -0.0193562076,    0.0000000000,    0.0068988730,    0.0000000000,   -0.1132603284,    0.0000000000,    0.0731747487,    0.0000000000,   -0.0541655922,    0.0000000000,   -0.0086455211,    0.0000000000,    0.0154253439,    0.0000000000,    0.0012921634,    0.0000000000,   -0.1004604175,    0.0000000000,   -0.0462090556,    0.0000000000,   -0.0503973434,    0.0000000000,    0.0230372249,    0.0000000000,    0.0007383667,    0.0000000000,   -0.0081910364,    0.0000000000,   -0.2102497802,    0.0000000000,    0.0023977986,    0.0000000000,    0.1045629357,    0.0000000000,    0.0003847580,    0.0000000000,    0.0003965836,    0.0000000000,   -0.0008282283,    0.0000000000,    0.0000744475,    0.0000000000,   -0.0003864454,    0.0000000000,    0.0014870000,    0.0000000000,    0.0000601209,    0.0000000000,   -0.0001069147,    0.0000000000,    0.0011512610,    0.0000000000,    0.0001440986,    0.0000000000,   -0.0001116958,    0.0000000000,   -0.0006887519,    0.0000000000,   -0.0002136028,    0.0000000000,    0.0004259784,    0.0000000000,   -0.0003230327,    0.0000000000,    0.0003472132,    0.0000000000,   -0.0003093902,    0.0000000000,   -0.0007982481,    0.0000000000,   -0.0491661470,    0.0000000000,    0.0094621106,    0.0000000000,   -0.0031666161,    0.0000000000,   -0.0082018802,    0.0000000000,    0.0172374371,    0.0000000000,   -0.0042176604,    0.0000000000,   -0.0663872713,    0.0000000000,   -0.0094651045,    0.0000000000,   -0.0078204414,    0.0000000000,    0.0170699414,    0.0000000000,    0.0004538465,    0.0000000000,   -0.0002504872,    0.0000000000,   -0.0741681582,    0.0000000000,    0.0149124342,    0.0000000000,    0.0109870574,    0.0000000000,   -0.0101009852,    0.0000000000,   -0.0130403977,    0.0000000000,    0.0044681476,    0.0000000000 ]
  - [    0.0000000000,   -0.0000000000,    0.7199358096,   -0.0000000000,   -0.0000000000,    0.0000000000,    0.0000000000,    0.0000000000,    0.0024367170,    0.0000000000,    0.0000000000,    0.0000000000,   -0.0442922403,    0.0000000000,   -0.0523053170,    0.0000000000,    0.0000000000,    0.0000000000,    0.0408364658,    0.0000000000,   -0.0422903962,    0.0000000000,    0.0000000000,    0.0000000000,    0.0007471208,    0.0000000000,    0.0003760192,    0.0000000000,   -0.0000000000,    0.0000000000,    0.0000000000,    0.0000000000,   -0.0008707170,    0.0000000000,    0.0000000000,    0.0000000000,   -0.0001125082,    0.0000000000,    0.0003377125,    0.0000000000,    0.0000000000,    0.0000000000,    0.0000508667,    0.0000000000,   -0.0005087300,    0.0000000000,   -0.0000000000,    0.0000000000,   -0.0007471208,    0.0000000000,    0.0003760192,    0.0000000000,    0.0000000000,    0.0000000000,    0.0000000000,    0.0000000000,   -0.1866735231,    0.0000000000,   -0.0000000000,    0.0000000000,   -0.0021411011,    0.0000000000,    0.0674954582,    0.0000000000,   -0.0000000000,    0.0000000000,    0.0408364658,    0.0000000000,   -0.0422903962,    0.0000000000,    0.0000000000,    0.0000000000,   -0.0172278763,    0.0000000000,    0.0114356170,    0.0000000000,   -0.0054751279,    0.0000000000,    0.0535990876,    0.0000000000,   -0.1693866891,    0.0000000000,    0.0894663588,    0.0000000000,    0.0175536752,    0.0000000000,    0.0145576947,    0.0000000000,    0.0087121632,    0.0000000000,   -0.0657847167,    0.0000000000,   -0.1821865999,    0.0000000000,   -0.0916419583,    0.0000000000,    0.0028666980,    0.0000000000,   -0.0171250513,    0.0000000000,   -0.0032370353,    0.0000000000,   -0.0171778625,    0.0000000000,   -0.0723972372,    0.0000000000,    0.0021755995,    0.0000000000,   -0.0000805146,    0.0000000000,   -0.0002305740,    0.0000000000,   -0.0008511838,    0.0000000000,    0.0001519088,    0.0000000000,    0.0003027254,    0.0000000000,   -0.0000632176,    0.0000000000,   -0.0005840129,    0.0000000000,    0.0000940632,    0.0000000000,   -0.0002916748,    0.0000000000,    0.0004266585,    0.0000000000,    0.0002330743,    0.0000000000,    0.0013193886,    0.0000000000,   -0.0000511198,    0.0000000000,    0.0003677869,    0.0000000000,    0.0011428586,    0.0000000000,    0.0002289640,    0.0000000000,    0.0000299597,    0.0000000000,   -0.0012561710,    0.0000000000,   -0.0004775162,    0.0000000000,   -0.0773149040,    0.0000000000,    0.0108585145,    0.0000000000,    0.0141368465,    0.0000000000,    0.0073799308,    0.0000000000,    0.0027243050,    0.0000000000,   -0.0194047313,    0.0000000000,   -0.0600937797,    0.0000000000,   -0.0081716272,    0.0000000000,   -0.0026467441,    0.0000000000,   -0.0178918907,    0.0000000000,   -0.0050147536,    0.0000000000,    0.0049728074,    0.0000000000,   -0.0523128928,    0.0000000000,   -0.0026868873,    0.0000000000,   -0.0161409883,    0.0000000000,    0.0092790359,    0.0000000000,    0.0022904485,    0.0000000000 ]
  - [    0.0000000000,   -0.0000000000,   -0.0000000000,   -0.0000000000,    0.8121509020,   -0.0000000000,    0.0000000000,    0.0000000000,    0.0000000000,    0.0000000000,   -0.0828209831,    0.0000000000,   -0.0000000000,    0.0000000000,   -0.0000000000,    0.0000000000,   -0.0337414776,    0.0000000000,   -0.0000000000,    0.0000000000,   -0.0000000000,    0.0000000000,   -0.0551722620,    0.0000000000,    0.0000000000,    0.0000000000,    0.0000000000,    0.0000000000,   -0.0699419334,    0.0000000000,    0.0000000000,    0.0000000000,    0.0000000000,    0.0000000000,   -0.0693105960,    0.0000000000,   -0.0000000000,    0.0000000000,    0.0000000000,    0.0000000000,   -0.0693194915,    0.0000000000,    0.0000000000,    0.0000000000,   -0.0000000000,    0.0000000000,   -0.0692759795,    0.0000000000,    0.0000000000,    0.0000000000,   -0.0000000000,    0.0000000000,   -0.0699419334,    0.0000000000,   -0.0000000000,    0.0000000000,    0.0000000000,    0.0000000000,    0.3194403550,    0.0000000000,    0.0000000000,    0.0000000000,   -0.0000000000,    0.0000000000,   -0.2136742652,    0.0000000000,   -0.0000000000,    0.0000000000,   -0.0000000000,    0.0000000000,   -0.0551722620,    0.0000000000,   -0.0040898082,    0.0000000000,   -0.0007481560,    0.0000000000,    0.0480367055,    0.0000000000,   -0.0611335896,    0.0000000000,    0.0984255922,    0.0000000000,   -0.2179078749,    0.0000000000,    0.0026928262,    0.0000000000,   -0.0031677998,    0.0000000000,    0.0480367055,    0.0000000000,   -0.0546722685,    0.0000000000,   -0.1021560377,    0.0000000000,   -0.2179078749,    0.0000000000,    0.0013969820,    0.0000000000,    0.0039159558,    0.0000000000,    0.0480367055,    0.0000000000,    0.1158058580,    0.0000000000,    0.0037304455,    0.0000000000,   -0.2179078749,    0.0000000000,    0.0000210613,    0.0000000000,   -0.0107445947,    0.0000000000,    0.0598600134,    0.0000000000,    0.0004993948,    0.0000000000,   -0.0106254524,    0.0000000000,    0.0597281404,    0.0000000000,    0.0092945613,    0.0000000000,    0.0053905370,    0.0000000000,    0.0598600134,    0.0000000000,    0.0089522143,    0.0000000000,    0.0057452148,    0.0000000000,    0.0597281404,    0.0000000000,   -0.0093156226,    0.0000000000,    0.0053540577,    0.0000000000,    0.0598600134,    0.0000000000,   -0.0094516091,    0.0000000000,    0.0048802376,    0.0000000000,    0.0597281404,    0.0000000000,    0.0065477308,    0.0000000000,    0.0158232291,    0.0000000000,   -0.1576732520,    0.0000000000,   -0.0001037538,    0.0000000000,   -0.0091622147,    0.0000000000,    0.0593827642,    0.0000000000,   -0.0169771838,    0.0000000000,   -0.0022411133,    0.0000000000,   -0.1576732520,    0.0000000000,    0.0079865876,    0.0000000000,    0.0044912540,    0.0000000000,    0.0593827642,    0.0000000000,    0.0104294529,    0.0000000000,   -0.0135821158,    0.0000000000,   -0.1576732520,    0.0000000000,   -0.0078828338,    0.0000000000,    0.0046709607,    0.0000000000,    0.0593827642,    0.0000000000 ]
  - [    0.0024367170,   -0.0000000000,    0.0000000000,   -0.0000000000,    0.0000000000,   -0.0000000000,    0.7199358096,   -0.0000000000,    0.0000000000,    0.0000000000,    0.0000000000,    0.0000000000,   -0.0422903962,    0.0000000000,   -0.0408364658,    0.0000000000,    0.0000000000,    0.0000000000,   -0.0523053170,    0.0000000000,    0.0442922403,    0.0000000000,    0.0000000000,    0.0000000000,   -0.1866735231,    0.0000000000,    0.0000000000,    0.0000000000,    0.0000000000,    0.0000000000,    0.0003760192,    0.0000000000,    0.0007471208,    0.0000000000,    0.0000000000,    0.0000000000,   -0.0422903962,    0.0000000000,   -0.0408364658,    0.0000000000,    0.0000000000,    0.0000000000,    0.0674954582,    0.0000000000,    0.0021411011,    0.0000000000,   -0.0000000000,    0.0000000000,   -0.0008707170,    0.0000000000,   -0.0000000000,    0.0000000000,    0.0000000000,    0.0000000000,    0.0003760192,    0.0000000000,   -0.0007471208,    0.0000000000,    0.0000000000,    0.0000000000,   -0.0005087300,    0.0000000000,   -0.0000508667,    0.0000000000,    0.0000000000,    0.0000000000,    0.0003377125,    0.0000000000,    0.0001125082,    0.0000000000,   -0.0000000000,    0.0000000000,   -0.1132603284,    0.0000000000,    0.0731747487,    0.0000000000,   -0.0541655922,    0.0000000000,   -0.0055234434,    0.0000000000,   -0.0193562076,    0.0000000000,    0.0068988730,    0.0000000000,   -0.1004604175,    0.0000000000,   -0.0462090556,    0.0000000000,   -0.0503973434,    0.0000000000,   -0.0086455211,    0.0000000000,    0.0154253439,    0.0000000000,    0.0012921634,    0.0000000000,   -0.2102497802,    0.0000000000,    0.0023977986,    0.0000000000,    0.1045629357,    0.0000000000,    0.0230372249,    0.0000000000,    0.0007383667,    0.0000000000,   -0.0081910364,    0.0000000000,   -0.0082018802,    0.0000000000,    0.0172374371,    0.0000000000,   -0.0042176604,    0.0000000000,   -0.0491661470,    0.0000000000,    0.0094621106,    0.0000000000,   -0.0031666161,    0.0000000000,    0.0170699414,    0.0000000000,    0.0004538465,    0.0000000000,   -0.0002504872,    0.0000000000,   -0.0663872713,    0.0000000000,   -0.0094651045,    0.0000000000,   -0.0078204414,    0.0000000000,   -0.0101009852,    0.0000000000,   -0.0130403977,    0.0000000000,    0.0044681476,    0.0000000000,   -0.0741681582,    0.0000000000,    0.0149124342,    0.0000000000,    0.0109870574,    0.0000000000,    0.0000744475,    0.0000000000,   -0.0003864454,    0.0000000000,    0.0014870000,    0.0000000000,    0.0003847580,    0.0000000000,    0.0003965836,    0.0000000000,   -0.0008282283,    0.0000000000,    0.0001440986,    0.0000000000,   -0.0001116958,    0.0000000000,   -0.0006887519,    0.0000000000,    0.0000601209,    0.0000000000,   -0.0001069147,    0.0000000000,    0.0011512610,    0.0000000000,    0.0003472132,    0.0000000000,   -0.0003093902,    0.0000000000,   -0.0007982481,    0.0000000000,   -0.0002136028,    0.0000000000,    0.0004259784,    0.0000000000,   -0.0003230327,    0.0000000000 ]
  - [    0.0000000000,   -0.0000000000,    0.0024367170,   -0.0000000000,    0.0000000000,   -0.0000000000,    0.0000000000,   -0.0000000000,    0.7199358096,   -0.0000000000,   -0.0000000000,    0.0000000000,    0.0408364658,    0.0000000000,   -0.0422903962,    0.0000000000,    0.0000000000,    0.0000000000,   -0.0442922403,    0.0000000000,   -0.0523053170,    0.0000000000,    0.0000000000,    0.0000000000,    0.0000000000,    0.0000000000,   -0.1866735231,    0.0000000000,   -0.0000000000,    0.0000000000,   -0.0007471208,    0.0000000000,    0.0003760192,    0.0000000000,    0.0000000000,    0.0000000000,    0.0408364658,    0.0000000000,   -0.0422903962,    0.0000000000,    0.0000000000,    0.0000000000,   -0.0021411011,    0.0000000000,    0.0674954582,    0.0000000000,   -0.0000000000,    0.0000000000,   -0.0000000000,    0.0000000000,   -0.0008707170,    0.0000000000,   -0.0000000000,    0.0000000000,    0.0007471208,    0.0000000000,    0.0003760192,    0.0000000000,   -0.0000000000,    0.0000000000,    0.0000508667,    0.0000000000,   -0.0005087300,    0.0000000000,   -0.0000000000,    0.0000000000,   -0.0001125082,    0.0000000000,    0.0003377125,    0.0000000000,    0.0000000000,    0.0000000000,    0.0535990876,    0.0000000000,   -0.1693866891,    0.0000000000,    0.0894663588,    0.0000000000,   -0.0172278763,    0.0000000000,    0.0114356170,    0.0000000000,   -0.0054751279,    0.0000000000,   -0.0657847167,    0.0000000000,   -0.1821865999,    0.0000000000,   -0.0916419583,    0.0000000000,    0.0175536752,    0.0000000000,    0.0145576947,    0.0000000000,    0.0087121632,    0.0000000000,   -0.0171778625,    0.0000000000,   -0.0723972372,    0.0000000000,    0.0021755995,    0.0000000000,    0.0028666980,    0.0000000000,   -0.0171250513,    0.0000000000,   -0.0032370353,    0.0000000000,    0.0141368465,    0.0000000000,    0.0073799308,    0.0000000000,    0.0027243050,    0.0000000000,   -0.0004775162,    0.0000000000,   -0.0773149040,    0.0000000000,    0.0108585145,    0.0000000000,   -0.0026467441,    0.0000000000,   -0.0178918907,    0.0000000000,   -0.0050147536,    0.0000000000,   -0.0194047313,    0.0000000000,   -0.0600937797,    0.0000000000,   -0.0081716272,    0.0000000000,   -0.0161409883,    0.0000000000,    0.0092790359,    0.0000000000,    0.0022904485,    0.0000000000,    0.0049728074,    0.0000000000,   -0.0523128928,    0.0000000000,   -0.0026868873,    0.0000000000,    0.0001519088,    0.0000000000,    0.0003027254,    0.0000000000,   -0.0000632176,    0.0000000000,   -0.0000805146,    0.0000000000,   -0.0002305740,    0.0000000000,   -0.0008511838,    0.0000000000,    0.0004266585,    0.0000000000,    0.0002330743,    0.0000000000,    0.0013193886,    0.0000000000,   -0.0005840129,    0.0000000000,    0.0000940632,    0.0000000000,   -0.0002916748,    0.0000000000,    0.0002289640,    0.0000000000,    0.0000299597,    0.0000000000,   -0.0012561710,    0.0000000000,   -0.0000511198,    0.0000000000,    0.0003677869,    0.0000000000,    0.0011428586,    0.0000000000 ]
  - [    0.0000000000,   -0.0000000000,    0.0000000000,   -0.0000000000,   -0.0828209831,   -0.0000000000,    0.0000000000,   -0.0000000000,   -0.0000000000,   -0.0000000000,    0.8121509020,   -0.0000000000,    0.0000000000,    0.0000000000,   -0.0000000000,    0.0000000000,   -0.0551722620,    0.0000000000,   -0.0000000000,    0.0000000000,   -0.0000000000,    0.0000000000,   -0.0337414776,    0.0000000000,    0.0000000000,    0.0000000000,   -0.0000000000,    0.0000000000,    0.3194403550,    0.0000000000,    0.0000000000,    0.0000000000,   -0.0000000000,    0.0000000000,   -0.0699419334,    0.0000000000,   -0.0000000000,    0.0000000000,   -0.0000000000,    0.0000000000,   -0.0551722620,    0.0000000000,    0.0000000000,    0.0000000000,   -0.0000000000,    0.0000000000,   -0.2136742652,    0.0000000000,   -0.0000000000,    0.0000000000,    0.0000000000,    0.0000000000,   -0.0693105960,    0.0000000000,    0.0000000000,    0.0000000000,    0.0000000000,    0.0000000000,   -0.0699419334,    0.0000000000,    0.0000000000,    0.0000000000,   -0.0000000000,    0.0000000000,   -0.0692759795,    0.0000000000,   -0.0000000000,    0.0000000000,    0.0000000000,    0.0000000000,   -0.0693194915,    0.0000000000,   -0.0611335896,    0.0000000000,    0.0984255922,    0.0000000000,   -0.2179078749,    0.0000000000,   -0.0040898082,    0.0000000000,   -0.0007481560,    0.0000000000,    0.0480367055,    0.0000000000,   -0.0546722685,    0.0000000000,   -0.1021560377,    0.0000000000,   -0.2179078749,    0.0000000000,    0.0026928262,    0.0000000000,   -0.0031677998,    0.0000000000,    0.0480367055,    0.0000000000,    0.1158058580,    0.0000000000,    0.0037304455,    0.0000000000,   -0.2179078749,    0.0000000000,    0.0013969820,    0.0000000000,    0.0039159558,    0.0000000000,    0.0480367055,    0.0000000000,   -0.0001037538,    0.0000000000,   -0.0091622147,    0.0000000000,    0.0593827642,    0.0000000000,    0.0065477308,    0.0000000000,    0.0158232291,    0.0000000000,   -0.1576732520,    0.0000000000,    0.0079865876,    0.0000000000,    0.0044912540,    0.0000000000,    0.0593827642,    0.0000000000,   -0.0169771838,    0.0000000000,   -0.0022411133,    0.0000000000,   -0.1576732520,    0.0000000000,   -0.0078828338,    0.0000000000,    0.0046709607,    0.0000000000,    0.0593827642,    0.0000000000,    0.0104294529,    0.0000000000,   -0.0135821158,    0.0000000000,   -0.1576732520,    0.0000000000,    0.0004993948,    0.0000000000,   -0.0106254524,    0.0000000000,    0.0597281404,    0.0000000000,    0.0000210613,    0.0000000000,   -0.0107445947,    0.0000000000,    0.0598600134,    0.0000000000,    0.0089522143,    0.0000000000,    0.0057452148,    0.0000000000,    0.0597281404,    0.0000000000,    0.0092945613,    0.0000000000,    0.0053905370,    0.0000000000,    0.0598600134,    0.0000000000,   -0.0094516091,    0.0000000000,    0.0048802376,    0.0000000000,    0.0597281404,    0.0000000000,   -0.0093156226,    0.0000000000,    0.0053540577,    0.0000000000,    0.0598600134,    0.0000000000 ]
  - [   -0.0523053170,   -0.0000000000,   -0.0442922403,   -0.0000000000,   -0.0000000000,   -0.0000000000,   -0.0422903962,   -0.0000000000,    0.0408364658,   -0.0000000000,    0.0000000000,   -0.0000000000,    0.7199358096,   -0.0000000000,   -0.0000000000,    0.0000000000,    0.0000000000,    0.0000000000,   -0.1866735231,    0.0000000000,    0.0000000000,    0.0000000000,    0.0000000000,    0.0000000000,    0.0674954582,    0.0000000000,   -0.0021411011,    0.0000000000,    0.0000000000,    0.0000000000,   -0.0005087300,    0.0000000000,    0.0000508667,    0.0000000000,    0.0000000000,    0.0000000000,    0.0003760192,    0.0000000000,   -0.0007471208,    0.0000000000,   -0.0000000000,    0.0000000000,   -0.0008707170,    0.0000000000,    0.0000000000,    0.0000000000,    0.0000000000,    0.0000000000,    0.0003377125,    0.0000000000,   -0.0001125082,    0.0000000000,   -0.0000000000,    0.0000000000,   -0.0422903962,    0.0000000000,    0.0408364658,    0.0000000000,    0.0000000000,    0.0000000000,    0.0003760192,    0.0000000000,    0.0007471208,    0.0000000000,    0.0000000000,    0.0000000000,    0.0024367170,    0.0000000000,   -0.0000000000,    0.0000000000,    0.0000000000,    0.0000000000,   -0.0491661470,    0.0000000000,   -0.0094621106,    0.0000000000,    0.0031666161,    0.0000000000,   -0.1132603284,    0.0000000000,   -0.0731747487,    0.0000000000,    0.0541655922,    0.0000000000,   -0.0741681582,    0.0000000000,   -0.0149124342,    0.0000000000,   -0.0109870574,    0.0000000000,   -0.2102497802,    0.0000000000,   -0.0023977986,    0.0000000000,   -0.1045629357,    0.0000000000,   -0.0663872713,    0.0000000000,    0.0094651045,    0.0000000000,    0.0078204414,    0.0000000000,   -0.1004604175,    0.0000000000,    0.0462090556,    0.0000000000,    0.0503973434,    0.0000000000,    0.0003847580,    0.0000000000,   -0.0003965836,    0.0000000000,    0.0008282283,    0.0000000000,   -0.0082018802,    0.0000000000,   -0.0172374371,    0.0000000000,    0.0042176604,    0.0000000000,   -0.0002136028,    0.0000000000,   -0.0004259784,    0.0000000000,    0.0003230327,    0.0000000000,   -0.0101009852,    0.0000000000,    0.0130403977,    0.0000000000,   -0.0044681476,    0.0000000000,    0.0000601209,    0.0000000000,    0.0001069147,    0.0000000000,   -0.0011512610,    0.0000000000,    0.0170699414,    0.0000000000,   -0.0004538465,    0.0000000000,    0.0002504872,    0.0000000000,   -0.0055234434,    0.0000000000,    0.0193562076,    0.0000000000,   -0.0068988730,    0.0000000000,    0.0000744475,    0.0000000000,    0.0003864454,    0.0000000000,   -0.0014870000,    0.0000000000,    0.0230372249,    0.0000000000,   -0.0007383667,    0.0000000000,    0.0081910364,    0.0000000000,    0.0003472132,    0.0000000000,    0.0003093902,    0.0000000000,    0.0007982481,    0.0000000000,   -0.0086455211,    0.0000000000,   -0.0154253439,    0.0000000000,   -0.0012921634,    0.0000000000,    0.0001440986,    0.0000000000,    0.0001116958,    0.0000000000,    0.0006887519,    0.0000000000 ]
  - [    0.0442922403,   -0.0000000000,   -0.0523053170,   -0.0000000000,   -0.0000000000,   -0.0000000000,   -0.0408364658,   -0.0000000000,   -0.0422903962,   -0.0000000000,   -0.0000000000,   -0.0000000000,   -0.0000000000,   -0.0000000000,    0.7199358096,   -0.0000000000,   -0.0000000000,    0.0000000000,    0.0000000000,    0.0000000000,   -0.1866735231,    0.0000000000,   -0.0000000000,    0.0000000000,    0.0021411011,    0.0000000000,    0.0674954582,    0.0000000000,    0.0000000000,    0.0000000000,   -0.0000508667,    0.0000000000,   -0.0005087300,    0.0000000000,    0.0000000000,    0.0000000000,    0.0007471208,    0.0000000000,    0.0003760192,    0.0000000000,   -0.0000000000,    0.0000000000,    0.0000000000,    0.0000000000,   -0.0008707170,    0.0000000000,    0.0000000000,    0.0000000000,    0.0001125082,    0.0000000000,    0.0003377125,    0.0000000000,    0.0000000000,    0.0000000000,   -0.0408364658,    0.0000000000,   -0.0422903962,    0.0000000000,   -0.0000000000,    0.0000000000,   -0.0007471208,    0.0000000000,    0.0003760192,    0.0000000000,   -0.0000000000,    0.0000000000,   -0.0000000000,    0.0000000000,    0.0024367170,    0.0000000000,   -0.0000000000,    0.0000000000,    0.0004775162,    0.0000000000,   -0.0773149040,    0.0000000000,    0.0108585145,    0.0000000000,   -0.0535990876,    0.0000000000,   -0.1693866891,    0.0000000000,    0.0894663588,    0.0000000000,   -0.0049728074,    0.0000000000,   -0.0523128928,    0.0000000000,   -0.0026868873,    0.0000000000,    0.0171778625,    0.0000000000,   -0.0723972372,    0.0000000000,    0.0021755995,    0.0000000000,    0.0194047313,    0.0000000000,   -0.0600937797,    0.0000000000,   -0.0081716272,    0.0000000000,    0.0657847167,    0.0000000000,   -0.1821865999,    0.0000000000,   -0.0916419583,    0.0000000000,    0.0000805146,    0.0000000000,   -0.0002305740,    0.0000000000,   -0.0008511838,    0.0000000000,   -0.0141368465,    0.0000000000,    0.0073799308,    0.0000000000,    0.0027243050,    0.0000000000,    0.0000511198,    0.0000000000,    0.0003677869,    0.0000000000,    0.0011428586,    0.0000000000,    0.0161409883,    0.0000000000,    0.0092790359,    0.0000000000,    0.0022904485,    0.0000000000,    0.0005840129,    0.0000000000,    0.0000940632,    0.0000000000,   -0.0002916748,    0.0000000000,    0.0026467441,    0.0000000000,   -0.0178918907,    0.0000000000,   -0.0050147536,    0.0000000000,    0.0172278763,    0.0000000000,    0.0114356170,    0.0000000000,   -0.0054751279,    0.0000000000,   -0.0001519088,    0.0000000000,    0.0003027254,    0.0000000000,   -0.0000632176,    0.0000000000,   -0.0028666980,    0.0000000000,   -0.0171250513,    0.0000000000,   -0.0032370353,    0.0000000000,   -0.0002289640,    0.0000000000,    0.0000299597,    0.0000000000,   -0.0012561710,    0.0000000000,   -0.0175536752,    0.0000000000,    0.0145576947,    0.0000000000,    0.0087121632,    0.0000000000,   -0.0004266585,    0.0000000000,    0.0002330743,    0.0000000000,    0.0013193886,    0.0000000000 ]
  - [    0.0000000000,   -0.0000000000,    0.0000000000,   -0.0000000000,   -0.0337414776,   -0.0000000000,    0.0000000000,   -0.0000000000,    0.0000000000,   -0.0000000000,   -0.0551722620,   -0.0000000000,    0.0000000000,   -0.0000000000,   -0.0000000000,   -0.0000000000,    0.8121509020,   -0.0000000000,    0.0000000000,    0.0000000000,   -0.0000000000,    0.0000000000,    0.3194403550,    0.0000000000,    0.0000000000,    0.0000000000,   -0.0000000000,    0.0000000000,   -0.2136742652,    0.0000000000,   -0.0000000000,    0.0000000000,   -0.0000000000,    0.0000000000,   -0.0692759795,    0.0000000000,    0.0000000000,    0.0000000000,    0.0000000000,    0.0000000000,   -0.0699419334,    0.0000000000,   -0.0000000000,    0.0000000000,    0.0000000000,    0.0000000000,   -0.0693105960,    0.0000000000,   -0.0000000000,    0.0000000000,   -0.0000000000,    0.0000000000,   -0.0693194915,    0.0000000000,   -0.0000000000,    0.0000000000,    0.0000000000,    0.0000000000,   -0.0551722620,    0.0000000000,    0.0000000000,    0.0000000000,    0.0000000000,    0.0000000000,   -0.0699419334,    0.0000000000,    0.0000000000,    0.0000000000,   -0.0000000000,    0.0000000000,   -0.0828209831,    0.0000000000,   -0.0065477308,    0.0000000000,    0.0158232291,    0.0000000000,   -0.1576732520,    0.0000000000,    0.0611335896,    0.0000000000,    0.0984255922,    0.0000000000,   -0.2179078749,    0.0000000000,   -0.0104294529,    0.0000000000,   -0.0135821158,    0.0000000000,   -0.1576732520,    0.0000000000,   -0.1158058580,    0.0000000000,    0.0037304455,    0.0000000000,   -0.2179078749,    0.0000000000,    0.0169771838,    0.0000000000,   -0.0022411133,    0.0000000000,   -0.1576732520,    0.0000000000,    0.0546722685,    0.0000000000,   -0.1021560377,    0.0000000000,   -0.2179078749,    0.0000000000,   -0.0000210613,    0.0000000000,   -0.0107445947,    0.0000000000,    0.0598600134,    0.0000000000,    0.0001037538,    0.0000000000,   -0.0091622147,    0.0000000000,    0.0593827642,    0.0000000000,    0.0093156226,    0.0000000000,    0.0053540577,    0.0000000000,    0.0598600134,    0.0000000000,    0.0078828338,    0.0000000000,    0.0046709607,    0.0000000000,    0.0593827642,    0.0000000000,   -0.0092945613,    0.0000000000,    0.0053905370,    0.0000000000,    0.0598600134,    0.0000000000,   -0.0079865876,    0.0000000000,    0.0044912540,    0.0000000000,    0.0593827642,    0.0000000000,    0.0040898082,    0.0000000000,   -0.0007481560,    0.0000000000,    0.0480367055,    0.0000000000,   -0.0004993948,    0.0000000000,   -0.0106254524,    0.0000000000,    0.0597281404,    0.0000000000,   -0.0013969820,    0.0000000000,    0.0039159558,    0.0000000000,    0.0480367055,    0.0000000000,    0.0094516091,    0.0000000000,    0.0048802376,    0.0000000000,    0.0597281404,    0.0000000000,   -0.0026928262,    0.0000000000,   -0.0031677998,    0.0000000000,    0.0480367055,    0.0000000000,   -0.0089522143,    0.0000000000,    0.0057452148,    0.0000000000,    0.0597281404,    0.0000000000 ]