
         
 *******************************************************************************
 *                                                                             *
 *                               CRYSTAL14                                     *
 *                      public : 1.0.3 - Sep 1st, 2014                         *
 *                       HTTP://WWW.CRYSTAL.UNITO.IT                           *
 *                                                                             *
 *                              MAIN AUTHORS                                   *
 *                                                                             *
 *  R. DOVESI(1,11), V.R. SAUNDERS(2), C. ROETTI(1,11), R. ORLANDO(1,11),      *
 *  C.M. ZICOVICH-WILSON(1,3), F. PASCALE(4), B. CIVALLERI(1,11),              *
 *  K. DOLL(5), N.M. HARRISON(2,6), I. J. BUSH(7), Ph. D'ARCO(8),              *
 *  M. LLUNELL(9), M. CAUSA'(10), Y. NOEL(8)                                   *
 *                                                                             *
 *        CONTRIBUTIONS TO THE CURRENT RELEASE HAVE BEEN GIVEN BY              *
 *                                                                             *
 *  L. MASCHIO(1,11), S. CASASSA(1,11), A. ERBA(1,11), M. FERRABONE(1,11),     *
 *  M. DE LA PIERRE(1,11), M. FERRERO(1,11), V. LACIVITA(1,11),                *
 *  J. BAIMA(1,11), E. ALBANESE(1,11), M.F. PEINTINGER(12), R. BAST(13),       *
 *  M. RERAT(14), B. KIRTMAN(15), R. DEMICHELIS(1,16)                          *
 *                                                                             *
 * (1) THEORETICAL CHEMISTRY GROUP - UNIVERSITA' DI TORINO - TORINO (ITALY)    *
 *     http://www.crystal.unito.it                                             *
 * (2) COMPUTATIONAL SCIENCE & ENGINEERING DEPARTMENT - STFC DARESBURY (UK)    *
 *     http://www.stfc.ac.uk/CSE/randd/cmg/CRYSTAL/25806.aspx                  *
 * (3) UNIVERSIDAD AUTONOMA DEL ESTADO DE MORELOS - CUERNAVACA (MEXICO)        *
 * (4) UNIVERSITE' DE LORRAINE - NANCY (FRANCE)                                *
 * (5) UNIVERSITAET ULM - ULM (GERMANY); (6) IMPERIAL COLLEGE - LONDON (UK)    *
 * (7) NAG - OXFORD (UK); (8) UPMC - SORBONNE UNIVERSITES - PARIS (FRANCE)     *
 * (9) UNIVERSIDAD DE BARCELONA - BARCELONA (SPAIN)                            *
 *(10) UNIVERSITA' DI NAPOLI "FEDERICO II" - NAPOLI (ITALY)                    *
 *(11) NIS - NANOSTRUCTURED INTERFACES AND SURFACES - TORINO (ITALY)           *
 *(12) MPI FUER CHEMISCHE ENERGIEKONVERSION - MUELHEIM AN DER RUHR (GERMANY)   *
 *(13) UNIVERSITY OF STOCKHOLM - STOCKHOLM (SWEDEN)                            *
 *(14) UNIVERSITE' DE PAU ET DES PAYS DE L'ADOUR - PAU (FRANCE)                *
 *(15) UNIVERSITY OF CALIFORNIA SANTA BARBARA - SANTA BARBARA (USA)            *
 *(16) CURTIN UNIVERSITY - PERTH (AUSTRALIA)                                   *
 *                                                                             *
 ********************************************************************************
 EEEEEEEEEE STARTING  DATE 06 05 2016 TIME 17:28:25.7
 ZNO FREQUENCY                                                                   

 CRYSTAL CALCULATION
 (INPUT ACCORDING TO THE INTERNATIONAL TABLES FOR X-RAY CRYSTALLOGRAPHY)
 CRYSTAL FAMILY                       :  HEXAGONAL   
 CRYSTAL CLASS  (GROTH - 1921)        :  DIHEXAGONAL PYRAMIDAL                

 SPACE GROUP (NONCENTROSYMMETRIC)     :  P 63 M C        

 LATTICE PARAMETERS  (ANGSTROMS AND DEGREES) - CONVENTIONAL CELL
        A           B           C        ALPHA        BETA       GAMMA
     3.28333     3.28333     5.26615    90.00000    90.00000   120.00000


 NUMBER OF IRREDUCIBLE ATOMS IN THE CONVENTIONAL CELL:    2

 INPUT COORDINATES

 ATOM AT. N.              COORDINATES
   1  30     3.333333333333E-01  6.666666666667E-01  7.167905190921E-04
   2   8     3.333333333333E-01  6.666666666667E-01  3.817832094809E-01

 *******************************************************************************

 << INFORMATION >>: FROM NOW ON, ALL COORDINATES REFER TO THE PRIMITIVE CELL

 *******************************************************************************

 LATTICE PARAMETERS  (ANGSTROMS AND DEGREES) - PRIMITIVE CELL
       A          B          C         ALPHA     BETA     GAMMA        VOLUME
    3.28333    3.28333    5.26615    90.00000  90.00000 120.00000     49.164706

 COORDINATES OF THE EQUIVALENT ATOMS (FRACTIONAL UNITS)

 N. ATOM EQUIV AT. N.          X                  Y                  Z

   1   1   1   30 ZN    3.33333333333E-01 -3.33333333333E-01  7.16790519092E-04
   2   1   2   30 ZN   -3.33333333333E-01  3.33333333333E-01 -4.99283209481E-01

   3   2   1    8 O     3.33333333333E-01 -3.33333333333E-01  3.81783209481E-01
   4   2   2    8 O    -3.33333333333E-01  3.33333333333E-01 -1.18216790519E-01

 NUMBER OF SYMMETRY OPERATORS         :   12
 *******************************************************************************
 * GEOMETRY EDITING - INPUT COORDINATES ARE GIVEN IN ANGSTROM         
 *******************************************************************************

 GEOMETRY NOW FULLY CONSISTENT WITH THE GROUP

 FRQFRQFRQFRQFRQFRQFRQFRQFRQFRQFRQFRQFRQFRQFRQFRQFRQFRQFRQFRQFRQFRQFRQFRQFRQFRQ

                       FREQUENCY CALCULATION

 INFORMATION **** NOOPTGEOM **** NO OPTIMIZATION IS PERFORMED BEFORE FREQUENCIES CALCULATION
 INFORMATION **** INPFREQ **** REMOVING ECKART CONDITIONS TO THE HESSIAN
 INFORMATION **** INPFREQ **** IR INTENSITIES EVALUATED THROUGH CPHF APPROACH

 GCALCO - MAX INDICES DIRECT LATTICE VECTOR    18    18     9
 NO.OF VECTORS CREATED 6999 STARS  372 RMAX    81.88193 BOHR

 GEOMETRY FOR WAVE FUNCTION - DIMENSIONALITY OF THE SYSTEM    3
 (NON PERIODIC DIRECTION: LATTICE PARAMETER FORMALLY SET TO 500)
 *******************************************************************************
 LATTICE PARAMETERS (ANGSTROMS AND DEGREES) - BOHR = 0.5291772083 ANGSTROM
 PRIMITIVE CELL - CENTRING CODE 1/0 VOLUME=    49.164706 - DENSITY  5.399 g/cm^3
         A              B              C           ALPHA      BETA       GAMMA 
     3.28333214     3.28333214     5.26614944    90.000000  90.000000 120.000000
 *******************************************************************************
 ATOMS IN THE ASYMMETRIC UNIT    2 - ATOMS IN THE UNIT CELL:    4
     ATOM              X/A                 Y/B                 Z/C    
 *******************************************************************************
   1 T  30 ZN    3.333333333333E-01 -3.333333333333E-01  7.167905190921E-04
   2 F  30 ZN   -3.333333333333E-01  3.333333333333E-01 -4.992832094809E-01
   3 T   8 O     3.333333333333E-01 -3.333333333333E-01  3.817832094809E-01
   4 F   8 O    -3.333333333333E-01  3.333333333333E-01 -1.182167905191E-01

 T = ATOM BELONGING TO THE ASYMMETRIC UNIT

 ****   12 SYMMOPS - TRANSLATORS IN FRACTIONAL UNITS
 **** MATRICES AND TRANSLATORS IN THE CRYSTALLOGRAPHIC REFERENCE FRAME
   V INV                    ROTATION MATRICES                   TRANSLATORS
   1   1  1.00  0.00  0.00  0.00  1.00  0.00  0.00  0.00  1.00  0.00  0.00  0.00
   2   2 -1.00  0.00  0.00 -0.00 -1.00  0.00  0.00  0.00  1.00  0.00  0.00  0.50
   3   4 -0.00 -1.00  0.00  1.00 -1.00  0.00  0.00  0.00  1.00  0.00  0.00  0.00
   4   3 -1.00  1.00  0.00 -1.00  0.00  0.00  0.00  0.00  1.00  0.00  0.00  0.00
   5   6  1.00 -1.00  0.00  1.00  0.00  0.00  0.00  0.00  1.00  0.00  0.00  0.50
   6   5  0.00  1.00  0.00 -1.00  1.00  0.00  0.00  0.00  1.00  0.00  0.00  0.50
   7   7 -1.00  1.00  0.00  0.00  1.00  0.00  0.00  0.00  1.00  0.00  0.00  0.00
   8   8  1.00  0.00  0.00  1.00 -1.00  0.00  0.00  0.00  1.00  0.00  0.00  0.00
   9   9 -0.00 -1.00  0.00 -1.00  0.00  0.00  0.00  0.00  1.00  0.00  0.00  0.00
  10  10  0.00  1.00  0.00  1.00  0.00  0.00  0.00  0.00  1.00  0.00  0.00  0.50
  11  11 -1.00  0.00  0.00 -1.00  1.00  0.00  0.00  0.00  1.00  0.00  0.00  0.50
  12  12  1.00 -1.00  0.00 -0.00 -1.00  0.00  0.00  0.00  1.00  0.00  0.00  0.50

 DIRECT LATTICE VECTORS CARTESIAN COMPONENTS (ANGSTROM)
          X                    Y                    Z
   0.284344904230E+01  -0.164166607000E+01   0.000000000000E+00
   0.000000000000E+00   0.328333214000E+01   0.000000000000E+00
   0.000000000000E+00   0.000000000000E+00   0.526614944000E+01


 CARTESIAN COORDINATES - PRIMITIVE CELL
 *******************************************************************************
 *      ATOM          X(ANGSTROM)         Y(ANGSTROM)         Z(ANGSTROM)
 *******************************************************************************
    1    30 ZN   -1.895632694868E+00  0.000000000000E+00  3.774725990714E-03
    2    30 ZN   -9.478163474340E-01 -1.641666070000E+00 -2.629299994009E+00
    3     8 O    -1.895632694868E+00  0.000000000000E+00  2.010527434809E+00
    4     8 O    -9.478163474340E-01 -1.641666070000E+00 -6.225472851908E-01

 *******************************************************************************
 LOCAL ATOMIC FUNCTIONS BASIS SET
 *******************************************************************************
   ATOM   X(AU)   Y(AU)   Z(AU)  N. TYPE  EXPONENT  S COEF   P COEF   D/F/G COEF
 *******************************************************************************
   1 ZN  -3.582   0.000   0.007
                                  1 S  
                                         4.170E+05 2.300E-04 0.000E+00 0.000E+00
                                         6.050E+04 1.920E-03 0.000E+00 0.000E+00
                                         1.291E+04 1.101E-02 0.000E+00 0.000E+00
                                         3.376E+03 4.978E-02 0.000E+00 0.000E+00
                                         1.018E+03 1.692E-01 0.000E+00 0.000E+00
                                         3.526E+02 3.677E-01 0.000E+00 0.000E+00
                                         1.382E+02 4.024E-01 0.000E+00 0.000E+00
                                         5.785E+01 1.439E-01 0.000E+00 0.000E+00
                             2-   5 SP 
                                         1.079E+03-6.200E-03 8.890E-03 0.000E+00
                                         2.565E+02-7.029E-02 6.384E-02 0.000E+00
                                         8.600E+01-1.372E-01 2.204E-01 0.000E+00
                                         3.432E+01 2.699E-01 4.056E-01 0.000E+00
                                         1.435E+01 5.992E-01 4.137E-01 0.000E+00
                                         4.777E+00 3.224E-01 3.497E-01 0.000E+00
                             6-   9 SP 
                                         6.089E+01 6.790E-03-8.950E-03 0.000E+00
                                         2.508E+01-8.468E-02-3.333E-02 0.000E+00
                                         1.062E+01-3.471E-01 8.119E-02 0.000E+00
                                         4.308E+00 4.063E-01 5.652E-01 0.000E+00
                            10-  13 SP 
                                         1.687E+00 1.000E+00 1.000E+00 0.000E+00
                            14-  17 SP 
                                         6.268E-01 1.000E+00 1.000E+00 0.000E+00
                            18-  21 SP 
                                         1.503E-01 1.000E+00 1.000E+00 0.000E+00
                            22-  26 D  
                                         5.734E+01 0.000E+00 0.000E+00 2.857E-02
                                         1.608E+01 0.000E+00 0.000E+00 1.569E-01
                                         5.349E+00 0.000E+00 0.000E+00 3.866E-01
                                         1.755E+00 0.000E+00 0.000E+00 4.777E-01
                            27-  31 D  
                                         5.159E-01 0.000E+00 0.000E+00 1.000E+00
   2 ZN  -1.791  -3.102  -4.969
   3 O   -3.582   0.000   3.799
                                 63 S  
                                         8.020E+03 1.080E-03 0.000E+00 0.000E+00
                                         1.338E+03 8.040E-03 0.000E+00 0.000E+00
                                         2.554E+02 5.324E-02 0.000E+00 0.000E+00
                                         6.922E+01 1.681E-01 0.000E+00 0.000E+00
                                         2.390E+01 3.581E-01 0.000E+00 0.000E+00
                                         9.264E+00 3.855E-01 0.000E+00 0.000E+00
                                         3.851E+00 1.468E-01 0.000E+00 0.000E+00
                                         1.212E+00 7.280E-02 0.000E+00 0.000E+00
                            64-  67 SP 
                                         4.943E+01-8.830E-03 9.580E-03 0.000E+00
                                         1.047E+01-9.150E-02 6.960E-02 0.000E+00
                                         3.235E+00-4.020E-02 2.065E-01 0.000E+00
                                         1.217E+00 3.790E-01 3.470E-01 0.000E+00
                            68-  71 SP 
                                         4.520E-01 1.000E+00 1.000E+00 0.000E+00
                            72-  75 SP 
                                         1.679E-01 1.000E+00 1.000E+00 0.000E+00
                            76-  80 D  
                                         4.510E-01 0.000E+00 0.000E+00 1.000E+00
   4 O   -1.791  -3.102  -1.176
 INFORMATION **** SET_MPP **** PCRYSTAL CALCULATION
 INFORMATION **** READM2 **** NEW DEFAULT: FOCK/KS MATRIX MIXING SET TO 30 %
 INFORMATION **** READM2 **** NEW DEFAULT: FULL DIRECT SCF MODE
 INFORMATION **** READM2 **** NEW DEFAULT: COULOMB BIPOLAR BUFFER SET TO 32 Mb
 INFORMATION **** READM2 **** NEW DEFAULT: EXCHANGE BIPOLAR BUFFER SET TO 32 Mb
 INFORMATION **** NOSYMADA **** SYMMETRY ADAPTION OF THE BLOCH FUNCTIONS DISABLED
 INFORMATION **** READM2 **** FULL DIRECT SCF (MONO AND BIEL INT) SELECTED

 *******************************************************************************
 NEW DEFAULT: DFT INTEGRATION GRID INCREASED TO XLGRID
 NEW DEFAULT: LEVEL SHIFTER 6 0
 IF THE SYSTEM IS A METAL USE KEYWORD NOSHIFT
 *******************************************************************************

 INFORMATION **** TOLINTEG **** COULOMB AND EXCHANGE SERIES TOLERANCES MODIFIED
 INFORMATION **** LEVSHIFT **** LEVEL SHIFTER ACTIVE
 INFORMATION **** TOLDEE **** SCF TOL ON TOTAL ENERGY SET TO          10
 INFORMATION **** MAXCYCLE **** MAX NUMBER OF SCF CYCLES SET TO          70
 *******************************************************************************
 N. OF ATOMS PER CELL         4  COULOMB OVERLAP TOL         (T1) 10**   -7
 NUMBER OF SHELLS            26  COULOMB PENETRATION TOL     (T2) 10**   -7
 NUMBER OF AO                98  EXCHANGE OVERLAP TOL        (T3) 10**   20
 N. OF ELECTRONS PER CELL    76  EXCHANGE PSEUDO OVP (F(G))  (T4) 10**   20
 CORE ELECTRONS PER CELL     40  EXCHANGE PSEUDO OVP (P(G))  (T5) 10**   20
 N. OF SYMMETRY OPERATORS    12  POLE ORDER IN MONO ZONE                  4
 *******************************************************************************
 TYPE OF CALCULATION :  RESTRICTED CLOSED SHELL
 KOHN-SHAM HAMILTONIAN

 (EXCHANGE)[CORRELATION] FUNCTIONAL:(PERDEW-BURKE-ERNZERHOF)[PERDEW-BURKE-ERNZERHOF]

 EIGENVALUE LEVEL SHIFTING OF  0.500 HARTREE

 CAPPA:IS1  8;IS2  8;IS3  8; K PTS MONK NET  50; SYMMOPS:K SPACE  24;G SPACE  12

 *******************************************************************************
 MAX NUMBER OF SCF CYCLES      70  CONVERGENCE ON DELTAP        10**-20
 WEIGHT OF F(I) IN F(I+1)      30% CONVERGENCE ON ENERGY        10**-10
 EIGENVALUE LEVEL SHIFTING OF  0.500 HARTREE
 SHRINK. FACT.(MONKH.)    8  8  8  NUMBER OF K POINTS IN THE IBZ     50
 SHRINKING FACTOR(GILAT NET)    8  NUMBER OF K POINTS(GILAT NET)     50
 *******************************************************************************
 *** K POINTS COORDINATES (OBLIQUE COORDINATES IN UNITS OF IS =  8)
   1-R(  0  0  0)   2-C(  1  0  0)   3-C(  2  0  0)   4-C(  3  0  0)
   5-R(  4  0  0)   6-C(  1  1  0)   7-C(  2  1  0)   8-C(  3  1  0)
   9-C(  2  2  0)  10-C(  3  2  0)  11-C(  0  0  1)  12-C(  1  0  1)
  13-C(  2  0  1)  14-C(  3  0  1)  15-C(  4  0  1)  16-C(  1  1  1)
  17-C(  2  1  1)  18-C(  3  1  1)  19-C(  2  2  1)  20-C(  3  2  1)
  21-C(  0  0  2)  22-C(  1  0  2)  23-C(  2  0  2)  24-C(  3  0  2)
  25-C(  4  0  2)  26-C(  1  1  2)  27-C(  2  1  2)  28-C(  3  1  2)
  29-C(  2  2  2)  30-C(  3  2  2)  31-C(  0  0  3)  32-C(  1  0  3)
  33-C(  2  0  3)  34-C(  3  0  3)  35-C(  4  0  3)  36-C(  1  1  3)
  37-C(  2  1  3)  38-C(  3  1  3)  39-C(  2  2  3)  40-C(  3  2  3)
  41-R(  0  0  4)  42-C(  1  0  4)  43-C(  2  0  4)  44-C(  3  0  4)
  45-R(  4  0  4)  46-C(  1  1  4)  47-C(  2  1  4)  48-C(  3  1  4)
  49-C(  2  2  4)  50-C(  3  2  4)

 DIRECT LATTICE VECTORS COMPON. (A.U.)     RECIP. LATTICE VECTORS COMPON. (A.U.) 
        X            Y            Z              X            Y            Z
    5.3733400   -3.1022993    0.0000000      1.1693258    0.0000000    0.0000000
    0.0000000    6.2045986    0.0000000      0.5846629    1.0126659    0.0000000
    0.0000000    0.0000000    9.9515802      0.0000000    0.0000000    0.6313756

 DISK SPACE FOR EIGENVECTORS (FTN 10)      921984 REALS

 SYMMETRY ADAPTION OF THE BLOCH FUNCTIONS DISABLED

 MATRIX SIZE: P(G)   67658, F(G)   34242, P(G) IRR    6168, F(G) IRR    6168
 MAX G-VECTOR INDEX FOR 1- AND 2-ELECTRON INTEGRALS 155

 TTTTTTTTTTTTTTTTTTTTTTTTTTTTTT INPUT       TELAPSE        0.01 TCPU        0.01

 NEIGHBORS OF THE NON-EQUIVALENT ATOMS

 N = NUMBER OF NEIGHBORS AT DISTANCE R
    ATOM  N     R/ANG      R/AU   NEIGHBORS (ATOM LABELS AND CELL INDICES)
   1 ZN   3     1.9964     3.7727    4 O    0 0 0    4 O   -1 0 0    4 O    0 1 0
   1 ZN   1     2.0068     3.7922    3 O    0 0 0
   1 ZN   6     3.2445     6.1311    2 ZN   0 0 0    2 ZN  -1 0 0    2 ZN   0 1 0
                                     2 ZN   0 0 1    2 ZN  -1 0 1    2 ZN   0 1 1
   1 ZN   1     3.2594     6.1594    3 O    0 0-1
   1 ZN   6     3.2833     6.2046    1 ZN  -1-1 0    1 ZN   1 1 0    1 ZN  -1 0 0
                                     1 ZN   1 0 0    1 ZN   0-1 0    1 ZN   0 1 0
   1 ZN   3     3.8427     7.2616    4 O    1 1 0    4 O   -1-1 0    4 O   -1 1 0

   3 O    3     1.9964     3.7727    2 ZN   0 0 1    2 ZN  -1 0 1    2 ZN   0 1 1
   3 O    1     2.0068     3.7922    1 ZN   0 0 0
   3 O    6     3.2445     6.1311    4 O    0 0 0    4 O   -1 0 0    4 O    0 1 0
                                     4 O    0 0 1    4 O   -1 0 1    4 O    0 1 1
   3 O    1     3.2594     6.1594    1 ZN   0 0 1
   3 O    6     3.2833     6.2046    3 O   -1-1 0    3 O    1 1 0    3 O   -1 0 0
                                     3 O    1 0 0    3 O    0-1 0    3 O    0 1 0
   3 O    3     3.8427     7.2616    2 ZN   1 1 1    2 ZN  -1-1 1    2 ZN  -1 1 1


 SYMMETRY ALLOWED INTERNAL DEGREE(S) OF FREEDOM:   1
 TTTTTTTTTTTTTTTTTTTTTTTTTTTTTT SYMM        TELAPSE        0.01 TCPU        0.01
 TTTTTTTTTTTTTTTTTTTTTTTTTTTTTT INT_SCREEN  TELAPSE        0.01 TCPU        0.01
 INFORMATION **** EXCBUF **** EXCH. BIPO BUFFER: WORDS USED =           0

 DFT PARAMETERS

     ATOM       ELECTRONS   NET CHARGE   R(ANGSTROM)
   1  30  ZN     30.0000      0.0000     1.37000000
   3   8  O       8.0000      0.0000     0.74000000

 SIZE OF GRID=       9535
 TTTTTTTTTTTTTTTTTTTTTTTTTTTTTT MAKE_GRID2  TELAPSE        1.14 TCPU        1.11
 BECKE WEIGHT FUNCTION
 RADSAFE =     2.00
 TOLERANCES - DENSITY:10**- 6; POTENTIAL:10**- 9; GRID WGT:10**-14

 RADIAL INTEGRATION  - INTERVALS (POINTS,UPPER LIMIT):            1( 75,  4.0*R)

 ANGULAR INTEGRATION - INTERVALS (ACCURACY LEVEL [N. POINTS] UPPER LIMIT):
  1(  4[  86]   0.2)  2(  8[ 194]   0.5)  3( 12[ 350]   0.9)  4( 16[ 974]   3.5)
  5( 12[ 350]9999.0)
 TTTTTTTTTTTTTTTTTTTTTTTTTTTTTT INT_CALC    TELAPSE        1.16 TCPU        1.13
 EEEEEEEEEE INT_CALC TERMINATION  DATE 06 05 2016 TIME 17:28:26.8

 *******************************************************************************
 ZNO FREQUENCY                                                                   
 CRYSTAL - SCF - TYPE OF CALCULATION :  RESTRICTED CLOSED SHELL
 *******************************************************************************

 CAPPA:IS1  8;IS2  8;IS3  8; K PTS MONK NET  50; SYMMOPS:K SPACE  24;G SPACE  12

 TTTTTTTTTTTTTTTTTTTTTTTTTTTTTT SDIK        TELAPSE        1.25 TCPU        1.21

 AAAAAAAAAAAAAAAAAAAAAAAAAAAAAAAAAAAAAAAAAAAAAAAAAAAAAAAAAAAAAAAAAAAAAAAAAAAAAAA
         ATOMIC WAVEFUNCTION(S)


 NUCLEAR CHARGE 30.0  SYMMETRY SPECIES            S    P    D
 N. ELECTRONS   30.0  NUMBER OF PRIMITIVE GTOS   21   13    5
                      NUMBER OF CONTRACTED GTOS   6    5    2
                      NUMBER OF CLOSED SHELLS     4    2    1
                      OPEN SHELL OCCUPATION       0    0    0

  ZNUC SCFIT  TOTAL HF ENERGY   KINETIC ENERGY   VIRIAL THEOREM ACCURACY
  30.0  18   -1.777663425E+03  1.777729594E+03 -1.999962779E+00  2.9E-06

 NUCLEAR CHARGE  8.0  SYMMETRY SPECIES            S    P
 N. ELECTRONS    8.0  NUMBER OF PRIMITIVE GTOS   14    6
                      NUMBER OF CONTRACTED GTOS   4    3
                      NUMBER OF CLOSED SHELLS     2    0
                      OPEN SHELL OCCUPATION       0    4

  ZNUC SCFIT  TOTAL HF ENERGY   KINETIC ENERGY   VIRIAL THEOREM ACCURACY
   8.0  13   -7.480011679E+01  7.459536520E+01 -2.002744830E+00  3.7E-06

 AAAAAAAAAAAAAAAAAAAAAAAAAAAAAAAAAAAAAAAAAAAAAAAAAAAAAAAAAAAAAAAAAAAAAAAAAAAAAAA

 TTTTTTTTTTTTTTTTTTTTTTTTTTTTTT MOQGAD      TELAPSE        1.29 TCPU        1.25
 TTTTTTTTTTTTTTTTTTTTTTTTTTTTTT SHELLX2     TELAPSE        3.99 TCPU        3.93
 TTTTTTTTTTTTTTTTTTTTTTTTTTTTTT MONMO3      TELAPSE        4.06 TCPU        4.00
 NUMERICALLY INTEGRATED DENSITY     76.0000029553
 TTTTTTTTTTTTTTTTTTTTTTTTTTTTTT NUMDFT      TELAPSE        4.84 TCPU        4.78
 CYC   0 ETOT(AU) -3.708644603273E+03 DETOT -3.71E+03 tst  0.00E+00 PX  1.00E+00
 TTTTTTTTTTTTTTTTTTTTTTTTTTTTTT FDIK        TELAPSE        5.58 TCPU        5.51
 INSULATING STATE
 TOP OF VALENCE BANDS -    BAND     38; K    1; EIG -1.6658280E-01 AU
 BOTTOM OF VIRTUAL BANDS - BAND     39; K    1; EIG -1.4352843E-01 AU
 TTTTTTTTTTTTTTTTTTTTTTTTTTTTTT PDIG        TELAPSE        5.63 TCPU        5.55
 TTTTTTTTTTTTTTTTTTTTTTTTTTTTTT MOQGAD      TELAPSE        5.67 TCPU        5.59
 TTTTTTTTTTTTTTTTTTTTTTTTTTTTTT SHELLX2     TELAPSE        8.93 TCPU        8.84
 TTTTTTTTTTTTTTTTTTTTTTTTTTTTTT MONMO3      TELAPSE        9.00 TCPU        8.92
 NUMERICALLY INTEGRATED DENSITY     76.0000049123
 TTTTTTTTTTTTTTTTTTTTTTTTTTTTTT NUMDFT      TELAPSE       11.26 TCPU       11.17
 CYC   1 ETOT(AU) -3.708199928954E+03 DETOT  4.45E-01 tst  0.00E+00 PX  1.00E+00
 TTTTTTTTTTTTTTTTTTTTTTTTTTTTTT FDIK        TELAPSE       11.59 TCPU       11.50
 POSSIBLY CONDUCTING STATE - EFERMI(AU) -5.4055493E-02 (RES. CHARGE  7.51E-06;IT. 31)
 TTTTTTTTTTTTTTTTTTTTTTTTTTTTTT PDIG        TELAPSE       11.64 TCPU       11.55
 TTTTTTTTTTTTTTTTTTTTTTTTTTTTTT MOQGAD      TELAPSE       11.68 TCPU       11.59
 TTTTTTTTTTTTTTTTTTTTTTTTTTTTTT SHELLX2     TELAPSE       15.02 TCPU       14.89
 TTTTTTTTTTTTTTTTTTTTTTTTTTTTTT MONMO3      TELAPSE       15.09 TCPU       14.96
 NUMERICALLY INTEGRATED DENSITY     76.0000079293
 TTTTTTTTTTTTTTTTTTTTTTTTTTTTTT NUMDFT      TELAPSE       17.34 TCPU       17.21
 CYC   2 ETOT(AU) -3.708515421836E+03 DETOT -3.15E-01 tst  4.61E-02 PX  1.71E-01
 TTTTTTTTTTTTTTTTTTTTTTTTTTTTTT FDIK        TELAPSE       17.67 TCPU       17.53
 INSULATING STATE
 TOP OF VALENCE BANDS -    BAND     38; K    1; EIG -1.5263027E-01 AU
 BOTTOM OF VIRTUAL BANDS - BAND     39; K    1; EIG -1.2076297E-01 AU
 TTTTTTTTTTTTTTTTTTTTTTTTTTTTTT PDIG        TELAPSE       17.71 TCPU       17.58
 TTTTTTTTTTTTTTTTTTTTTTTTTTTTTT MOQGAD      TELAPSE       17.75 TCPU       17.62
 TTTTTTTTTTTTTTTTTTTTTTTTTTTTTT SHELLX2     TELAPSE       20.98 TCPU       20.85
 TTTTTTTTTTTTTTTTTTTTTTTTTTTTTT MONMO3      TELAPSE       21.05 TCPU       20.92
 NUMERICALLY INTEGRATED DENSITY     76.0000073892
 TTTTTTTTTTTTTTTTTTTTTTTTTTTTTT NUMDFT      TELAPSE       23.31 TCPU       23.18
 CYC   3 ETOT(AU) -3.708626489854E+03 DETOT -1.11E-01 tst  6.39E-02 PX  8.27E-02
 TTTTTTTTTTTTTTTTTTTTTTTTTTTTTT FDIK        TELAPSE       23.62 TCPU       23.49
 INSULATING STATE
 TOP OF VALENCE BANDS -    BAND     38; K    1; EIG -1.8246294E-01 AU
 BOTTOM OF VIRTUAL BANDS - BAND     39; K    1; EIG -1.2819939E-01 AU
 TTTTTTTTTTTTTTTTTTTTTTTTTTTTTT PDIG        TELAPSE       23.67 TCPU       23.53
 TTTTTTTTTTTTTTTTTTTTTTTTTTTTTT MOQGAD      TELAPSE       23.70 TCPU       23.57
 TTTTTTTTTTTTTTTTTTTTTTTTTTTTTT SHELLX2     TELAPSE       26.93 TCPU       26.80
 TTTTTTTTTTTTTTTTTTTTTTTTTTTTTT MONMO3      TELAPSE       27.00 TCPU       26.87
 NUMERICALLY INTEGRATED DENSITY     76.0000072768
 TTTTTTTTTTTTTTTTTTTTTTTTTTTTTT NUMDFT      TELAPSE       29.26 TCPU       29.13
 CYC   4 ETOT(AU) -3.708643002485E+03 DETOT -1.65E-02 tst  1.14E-03 PX  3.93E-02
 TTTTTTTTTTTTTTTTTTTTTTTTTTTTTT FDIK        TELAPSE       29.57 TCPU       29.44
 INSULATING STATE
 TOP OF VALENCE BANDS -    BAND     38; K    1; EIG -1.6540665E-01 AU
 BOTTOM OF VIRTUAL BANDS - BAND     39; K    1; EIG -1.2287488E-01 AU
 TTTTTTTTTTTTTTTTTTTTTTTTTTTTTT PDIG        TELAPSE       29.62 TCPU       29.48
 TTTTTTTTTTTTTTTTTTTTTTTTTTTTTT MOQGAD      TELAPSE       29.65 TCPU       29.52
 TTTTTTTTTTTTTTTTTTTTTTTTTTTTTT SHELLX2     TELAPSE       32.88 TCPU       32.75
 TTTTTTTTTTTTTTTTTTTTTTTTTTTTTT MONMO3      TELAPSE       32.96 TCPU       32.82
 NUMERICALLY INTEGRATED DENSITY     76.0000073625
 TTTTTTTTTTTTTTTTTTTTTTTTTTTTTT NUMDFT      TELAPSE       35.19 TCPU       35.06
 CYC   5 ETOT(AU) -3.708646491649E+03 DETOT -3.49E-03 tst  4.03E-04 PX  1.66E-02
 TTTTTTTTTTTTTTTTTTTTTTTTTTTTTT FDIK        TELAPSE       35.50 TCPU       35.37
 INSULATING STATE
 TOP OF VALENCE BANDS -    BAND     38; K    1; EIG -1.7206439E-01 AU
 BOTTOM OF VIRTUAL BANDS - BAND     39; K    1; EIG -1.2512187E-01 AU
 TTTTTTTTTTTTTTTTTTTTTTTTTTTTTT PDIG        TELAPSE       35.55 TCPU       35.42
 TTTTTTTTTTTTTTTTTTTTTTTTTTTTTT MOQGAD      TELAPSE       35.59 TCPU       35.45
 TTTTTTTTTTTTTTTTTTTTTTTTTTTTTT SHELLX2     TELAPSE       38.82 TCPU       38.68
 TTTTTTTTTTTTTTTTTTTTTTTTTTTTTT MONMO3      TELAPSE       38.89 TCPU       38.76
 NUMERICALLY INTEGRATED DENSITY     76.0000073869
 TTTTTTTTTTTTTTTTTTTTTTTTTTTTTT NUMDFT      TELAPSE       41.14 TCPU       41.00
 CYC   6 ETOT(AU) -3.708647030402E+03 DETOT -5.39E-04 tst  1.78E-04 PX  6.57E-03
 TTTTTTTTTTTTTTTTTTTTTTTTTTTTTT FDIK        TELAPSE       41.44 TCPU       41.31
 INSULATING STATE
 TOP OF VALENCE BANDS -    BAND     38; K    1; EIG -1.7134653E-01 AU
 BOTTOM OF VIRTUAL BANDS - BAND     39; K    1; EIG -1.2527399E-01 AU
 TTTTTTTTTTTTTTTTTTTTTTTTTTTTTT PDIG        TELAPSE       41.49 TCPU       41.36
 TTTTTTTTTTTTTTTTTTTTTTTTTTTTTT MOQGAD      TELAPSE       41.53 TCPU       41.40
 TTTTTTTTTTTTTTTTTTTTTTTTTTTTTT SHELLX2     TELAPSE       44.76 TCPU       44.63
 TTTTTTTTTTTTTTTTTTTTTTTTTTTTTT MONMO3      TELAPSE       44.83 TCPU       44.70
 NUMERICALLY INTEGRATED DENSITY     76.0000073848
 TTTTTTTTTTTTTTTTTTTTTTTTTTTTTT NUMDFT      TELAPSE       47.07 TCPU       46.94
 CYC   7 ETOT(AU) -3.708647155361E+03 DETOT -1.25E-04 tst  1.13E-04 PX  2.80E-03
 TTTTTTTTTTTTTTTTTTTTTTTTTTTTTT FDIK        TELAPSE       47.38 TCPU       47.25
 INSULATING STATE
 TOP OF VALENCE BANDS -    BAND     38; K    1; EIG -1.7190582E-01 AU
 BOTTOM OF VIRTUAL BANDS - BAND     39; K    1; EIG -1.2544530E-01 AU
 TTTTTTTTTTTTTTTTTTTTTTTTTTTTTT PDIG        TELAPSE       47.43 TCPU       47.30
 TTTTTTTTTTTTTTTTTTTTTTTTTTTTTT MOQGAD      TELAPSE       47.47 TCPU       47.33
 TTTTTTTTTTTTTTTTTTTTTTTTTTTTTT SHELLX2     TELAPSE       50.70 TCPU       50.56
 TTTTTTTTTTTTTTTTTTTTTTTTTTTTTT MONMO3      TELAPSE       50.77 TCPU       50.64
 NUMERICALLY INTEGRATED DENSITY     76.0000073931
 TTTTTTTTTTTTTTTTTTTTTTTTTTTTTT NUMDFT      TELAPSE       53.03 TCPU       52.90
 CYC   8 ETOT(AU) -3.708647182270E+03 DETOT -2.69E-05 tst  7.54E-05 PX  1.21E-03
 TTTTTTTTTTTTTTTTTTTTTTTTTTTTTT FDIK        TELAPSE       53.34 TCPU       53.21
 INSULATING STATE
 TOP OF VALENCE BANDS -    BAND     38; K    1; EIG -1.7171772E-01 AU
 BOTTOM OF VIRTUAL BANDS - BAND     39; K    1; EIG -1.2546654E-01 AU
 TTTTTTTTTTTTTTTTTTTTTTTTTTTTTT PDIG        TELAPSE       53.39 TCPU       53.26
 TTTTTTTTTTTTTTTTTTTTTTTTTTTTTT MOQGAD      TELAPSE       53.42 TCPU       53.29
 TTTTTTTTTTTTTTTTTTTTTTTTTTTTTT SHELLX2     TELAPSE       56.65 TCPU       56.52
 TTTTTTTTTTTTTTTTTTTTTTTTTTTTTT MONMO3      TELAPSE       56.73 TCPU       56.59
 NUMERICALLY INTEGRATED DENSITY     76.0000073967
 TTTTTTTTTTTTTTTTTTTTTTTTTTTTTT NUMDFT      TELAPSE       59.00 TCPU       58.86
 CYC   9 ETOT(AU) -3.708647191673E+03 DETOT -9.40E-06 tst  4.90E-05 PX  5.62E-04
 TTTTTTTTTTTTTTTTTTTTTTTTTTTTTT FDIK        TELAPSE       59.31 TCPU       59.17
 INSULATING STATE
 TOP OF VALENCE BANDS -    BAND     38; K    1; EIG -1.7193685E-01 AU
 BOTTOM OF VIRTUAL BANDS - BAND     39; K    1; EIG -1.2555929E-01 AU
 TTTTTTTTTTTTTTTTTTTTTTTTTTTTTT PDIG        TELAPSE       59.35 TCPU       59.22
 TTTTTTTTTTTTTTTTTTTTTTTTTTTTTT MOQGAD      TELAPSE       59.39 TCPU       59.25
 TTTTTTTTTTTTTTTTTTTTTTTTTTTTTT SHELLX2     TELAPSE       62.62 TCPU       62.49
 TTTTTTTTTTTTTTTTTTTTTTTTTTTTTT MONMO3      TELAPSE       62.69 TCPU       62.56
 NUMERICALLY INTEGRATED DENSITY     76.0000073989
 TTTTTTTTTTTTTTTTTTTTTTTTTTTTTT NUMDFT      TELAPSE       64.95 TCPU       64.82
 CYC  10 ETOT(AU) -3.708647194762E+03 DETOT -3.09E-06 tst  3.13E-05 PX  3.64E-04
 TTTTTTTTTTTTTTTTTTTTTTTTTTTTTT FDIK        TELAPSE       65.25 TCPU       65.12
 INSULATING STATE
 TOP OF VALENCE BANDS -    BAND     38; K    1; EIG -1.7191991E-01 AU
 BOTTOM OF VIRTUAL BANDS - BAND     39; K    1; EIG -1.2557850E-01 AU
 TTTTTTTTTTTTTTTTTTTTTTTTTTTTTT PDIG        TELAPSE       65.30 TCPU       65.16
 TTTTTTTTTTTTTTTTTTTTTTTTTTTTTT MOQGAD      TELAPSE       65.33 TCPU       65.20
 TTTTTTTTTTTTTTTTTTTTTTTTTTTTTT SHELLX2     TELAPSE       68.56 TCPU       68.43
 TTTTTTTTTTTTTTTTTTTTTTTTTTTTTT MONMO3      TELAPSE       68.64 TCPU       68.50
 NUMERICALLY INTEGRATED DENSITY     76.0000074002
 TTTTTTTTTTTTTTTTTTTTTTTTTTTTTT NUMDFT      TELAPSE       70.91 TCPU       70.77
 CYC  11 ETOT(AU) -3.708647196437E+03 DETOT -1.68E-06 tst  2.03E-05 PX  2.45E-04
 TTTTTTTTTTTTTTTTTTTTTTTTTTTTTT FDIK        TELAPSE       71.20 TCPU       71.07
 INSULATING STATE
 TOP OF VALENCE BANDS -    BAND     38; K    1; EIG -1.7196668E-01 AU
 BOTTOM OF VIRTUAL BANDS - BAND     39; K    1; EIG -1.2560335E-01 AU
 TTTTTTTTTTTTTTTTTTTTTTTTTTTTTT PDIG        TELAPSE       71.25 TCPU       71.12
 TTTTTTTTTTTTTTTTTTTTTTTTTTTTTT MOQGAD      TELAPSE       71.29 TCPU       71.15
 TTTTTTTTTTTTTTTTTTTTTTTTTTTTTT SHELLX2     TELAPSE       74.52 TCPU       74.38
 TTTTTTTTTTTTTTTTTTTTTTTTTTTTTT MONMO3      TELAPSE       74.59 TCPU       74.46
 NUMERICALLY INTEGRATED DENSITY     76.0000074011
 TTTTTTTTTTTTTTTTTTTTTTTTTTTTTT NUMDFT      TELAPSE       76.86 TCPU       76.73
 CYC  12 ETOT(AU) -3.708647197221E+03 DETOT -7.84E-07 tst  1.31E-05 PX  1.70E-04
 TTTTTTTTTTTTTTTTTTTTTTTTTTTTTT FDIK        TELAPSE       77.15 TCPU       77.02
 INSULATING STATE
 TOP OF VALENCE BANDS -    BAND     38; K    1; EIG -1.7197773E-01 AU
 BOTTOM OF VIRTUAL BANDS - BAND     39; K    1; EIG -1.2561563E-01 AU
 TTTTTTTTTTTTTTTTTTTTTTTTTTTTTT PDIG        TELAPSE       77.20 TCPU       77.07
 TTTTTTTTTTTTTTTTTTTTTTTTTTTTTT MOQGAD      TELAPSE       77.24 TCPU       77.10
 TTTTTTTTTTTTTTTTTTTTTTTTTTTTTT SHELLX2     TELAPSE       80.46 TCPU       80.33
 TTTTTTTTTTTTTTTTTTTTTTTTTTTTTT MONMO3      TELAPSE       80.54 TCPU       80.40
 NUMERICALLY INTEGRATED DENSITY     76.0000074016
 TTTTTTTTTTTTTTTTTTTTTTTTTTTTTT NUMDFT      TELAPSE       82.80 TCPU       82.67
 CYC  13 ETOT(AU) -3.708647197696E+03 DETOT -4.75E-07 tst  9.34E-06 PX  1.15E-04
 TTTTTTTTTTTTTTTTTTTTTTTTTTTTTT FDIK        TELAPSE       83.08 TCPU       82.95
 INSULATING STATE
 TOP OF VALENCE BANDS -    BAND     38; K    1; EIG -1.7199237E-01 AU
 BOTTOM OF VIRTUAL BANDS - BAND     39; K    1; EIG -1.2562491E-01 AU
 TTTTTTTTTTTTTTTTTTTTTTTTTTTTTT PDIG        TELAPSE       83.12 TCPU       82.99
 TTTTTTTTTTTTTTTTTTTTTTTTTTTTTT MOQGAD      TELAPSE       83.16 TCPU       83.03
 TTTTTTTTTTTTTTTTTTTTTTTTTTTTTT SHELLX2     TELAPSE       86.39 TCPU       86.26
 TTTTTTTTTTTTTTTTTTTTTTTTTTTTTT MONMO3      TELAPSE       86.46 TCPU       86.33
 NUMERICALLY INTEGRATED DENSITY     76.0000074020
 TTTTTTTTTTTTTTTTTTTTTTTTTTTTTT NUMDFT      TELAPSE       88.73 TCPU       88.59
 CYC  14 ETOT(AU) -3.708647197968E+03 DETOT -2.72E-07 tst  7.77E-06 PX  8.09E-05
 TTTTTTTTTTTTTTTTTTTTTTTTTTTTTT FDIK        TELAPSE       89.00 TCPU       88.87
 INSULATING STATE
 TOP OF VALENCE BANDS -    BAND     38; K    1; EIG -1.7200050E-01 AU
 BOTTOM OF VIRTUAL BANDS - BAND     39; K    1; EIG -1.2563067E-01 AU
 TTTTTTTTTTTTTTTTTTTTTTTTTTTTTT PDIG        TELAPSE       89.05 TCPU       88.91
 TTTTTTTTTTTTTTTTTTTTTTTTTTTTTT MOQGAD      TELAPSE       89.08 TCPU       88.95
 TTTTTTTTTTTTTTTTTTTTTTTTTTTTTT SHELLX2     TELAPSE       92.31 TCPU       92.18
 TTTTTTTTTTTTTTTTTTTTTTTTTTTTTT MONMO3      TELAPSE       92.39 TCPU       92.25
 NUMERICALLY INTEGRATED DENSITY     76.0000074022
 TTTTTTTTTTTTTTTTTTTTTTTTTTTTTT NUMDFT      TELAPSE       94.65 TCPU       94.52
 CYC  15 ETOT(AU) -3.708647198132E+03 DETOT -1.65E-07 tst  6.45E-06 PX  5.56E-05
 TTTTTTTTTTTTTTTTTTTTTTTTTTTTTT FDIK        TELAPSE       94.93 TCPU       94.79
 INSULATING STATE
 TOP OF VALENCE BANDS -    BAND     38; K    1; EIG -1.7200622E-01 AU
 BOTTOM OF VIRTUAL BANDS - BAND     39; K    1; EIG -1.2563441E-01 AU
 TTTTTTTTTTTTTTTTTTTTTTTTTTTTTT PDIG        TELAPSE       94.97 TCPU       94.84
 TTTTTTTTTTTTTTTTTTTTTTTTTTTTTT MOQGAD      TELAPSE       95.01 TCPU       94.88
 TTTTTTTTTTTTTTTTTTTTTTTTTTTTTT SHELLX2     TELAPSE       98.24 TCPU       98.11
 TTTTTTTTTTTTTTTTTTTTTTTTTTTTTT MONMO3      TELAPSE       98.31 TCPU       98.18
 NUMERICALLY INTEGRATED DENSITY     76.0000074024
 TTTTTTTTTTTTTTTTTTTTTTTTTTTTTT NUMDFT      TELAPSE      100.54 TCPU      100.41
 CYC  16 ETOT(AU) -3.708647198235E+03 DETOT -1.03E-07 tst  5.36E-06 PX  3.97E-05
 TTTTTTTTTTTTTTTTTTTTTTTTTTTTTT FDIK        TELAPSE      100.82 TCPU      100.68
 INSULATING STATE
 TOP OF VALENCE BANDS -    BAND     38; K    1; EIG -1.7201017E-01 AU
 BOTTOM OF VIRTUAL BANDS - BAND     39; K    1; EIG -1.2563682E-01 AU
 TTTTTTTTTTTTTTTTTTTTTTTTTTTTTT PDIG        TELAPSE      100.86 TCPU      100.73
 TTTTTTTTTTTTTTTTTTTTTTTTTTTTTT MOQGAD      TELAPSE      100.90 TCPU      100.77
 TTTTTTTTTTTTTTTTTTTTTTTTTTTTTT SHELLX2     TELAPSE      104.13 TCPU      104.00
 TTTTTTTTTTTTTTTTTTTTTTTTTTTTTT MONMO3      TELAPSE      104.20 TCPU      104.07
 NUMERICALLY INTEGRATED DENSITY     76.0000074025
 TTTTTTTTTTTTTTTTTTTTTTTTTTTTTT NUMDFT      TELAPSE      106.44 TCPU      106.31
 CYC  17 ETOT(AU) -3.708647198303E+03 DETOT -6.84E-08 tst  4.46E-06 PX  2.83E-05
 TTTTTTTTTTTTTTTTTTTTTTTTTTTTTT FDIK        TELAPSE      106.72 TCPU      106.58
 INSULATING STATE
 TOP OF VALENCE BANDS -    BAND     38; K    1; EIG -1.7201299E-01 AU
 BOTTOM OF VIRTUAL BANDS - BAND     39; K    1; EIG -1.2563843E-01 AU
 TTTTTTTTTTTTTTTTTTTTTTTTTTTTTT PDIG        TELAPSE      106.76 TCPU      106.63
 TTTTTTTTTTTTTTTTTTTTTTTTTTTTTT MOQGAD      TELAPSE      106.80 TCPU      106.67
 TTTTTTTTTTTTTTTTTTTTTTTTTTTTTT SHELLX2     TELAPSE      110.03 TCPU      109.90
 TTTTTTTTTTTTTTTTTTTTTTTTTTTTTT MONMO3      TELAPSE      110.10 TCPU      109.97
 NUMERICALLY INTEGRATED DENSITY     76.0000074026
 TTTTTTTTTTTTTTTTTTTTTTTTTTTTTT NUMDFT      TELAPSE      112.33 TCPU      112.20
 CYC  18 ETOT(AU) -3.708647198350E+03 DETOT -4.67E-08 tst  3.71E-06 PX  2.06E-05
 TTTTTTTTTTTTTTTTTTTTTTTTTTTTTT FDIK        TELAPSE      112.60 TCPU      112.47
 INSULATING STATE
 TOP OF VALENCE BANDS -    BAND     38; K    1; EIG -1.7201499E-01 AU
 BOTTOM OF VIRTUAL BANDS - BAND     39; K    1; EIG -1.2563949E-01 AU
 TTTTTTTTTTTTTTTTTTTTTTTTTTTTTT PDIG        TELAPSE      112.65 TCPU      112.52
 TTTTTTTTTTTTTTTTTTTTTTTTTTTTTT MOQGAD      TELAPSE      112.69 TCPU      112.55
 TTTTTTTTTTTTTTTTTTTTTTTTTTTTTT SHELLX2     TELAPSE      115.92 TCPU      115.78
 TTTTTTTTTTTTTTTTTTTTTTTTTTTTTT MONMO3      TELAPSE      115.99 TCPU      115.86
 NUMERICALLY INTEGRATED DENSITY     76.0000074026
 TTTTTTTTTTTTTTTTTTTTTTTTTTTTTT NUMDFT      TELAPSE      118.23 TCPU      118.10
 CYC  19 ETOT(AU) -3.708647198382E+03 DETOT -3.17E-08 tst  3.08E-06 PX  1.45E-05
 TTTTTTTTTTTTTTTTTTTTTTTTTTTTTT FDIK        TELAPSE      118.50 TCPU      118.37
 INSULATING STATE
 TOP OF VALENCE BANDS -    BAND     38; K    1; EIG -1.7201644E-01 AU
 BOTTOM OF VIRTUAL BANDS - BAND     39; K    1; EIG -1.2564017E-01 AU
 TTTTTTTTTTTTTTTTTTTTTTTTTTTTTT PDIG        TELAPSE      118.55 TCPU      118.41
 TTTTTTTTTTTTTTTTTTTTTTTTTTTTTT MOQGAD      TELAPSE      118.58 TCPU      118.45
 TTTTTTTTTTTTTTTTTTTTTTTTTTTTTT SHELLX2     TELAPSE      121.82 TCPU      121.69
 TTTTTTTTTTTTTTTTTTTTTTTTTTTTTT MONMO3      TELAPSE      121.89 TCPU      121.76
 NUMERICALLY INTEGRATED DENSITY     76.0000074027
 TTTTTTTTTTTTTTTTTTTTTTTTTTTTTT NUMDFT      TELAPSE      124.13 TCPU      124.00
 CYC  20 ETOT(AU) -3.708647198405E+03 DETOT -2.29E-08 tst  2.56E-06 PX  1.03E-05
 TTTTTTTTTTTTTTTTTTTTTTTTTTTTTT FDIK        TELAPSE      124.41 TCPU      124.27
 INSULATING STATE
 TOP OF VALENCE BANDS -    BAND     38; K    1; EIG -1.7201745E-01 AU
 BOTTOM OF VIRTUAL BANDS - BAND     39; K    1; EIG -1.2564058E-01 AU
 TTTTTTTTTTTTTTTTTTTTTTTTTTTTTT PDIG        TELAPSE      124.45 TCPU      124.32
 TTTTTTTTTTTTTTTTTTTTTTTTTTTTTT MOQGAD      TELAPSE      124.49 TCPU      124.36
 TTTTTTTTTTTTTTTTTTTTTTTTTTTTTT SHELLX2     TELAPSE      127.72 TCPU      127.59
 TTTTTTTTTTTTTTTTTTTTTTTTTTTTTT MONMO3      TELAPSE      127.80 TCPU      127.66
 NUMERICALLY INTEGRATED DENSITY     76.0000074027
 TTTTTTTTTTTTTTTTTTTTTTTTTTTTTT NUMDFT      TELAPSE      130.05 TCPU      129.92
 CYC  21 ETOT(AU) -3.708647198421E+03 DETOT -1.66E-08 tst  2.13E-06 PX  7.58E-06
 TTTTTTTTTTTTTTTTTTTTTTTTTTTTTT FDIK        TELAPSE      130.32 TCPU      130.18
 INSULATING STATE
 TOP OF VALENCE BANDS -    BAND     38; K    1; EIG -1.7201815E-01 AU
 BOTTOM OF VIRTUAL BANDS - BAND     39; K    1; EIG -1.2564081E-01 AU
 TTTTTTTTTTTTTTTTTTTTTTTTTTTTTT PDIG        TELAPSE      130.36 TCPU      130.23
 TTTTTTTTTTTTTTTTTTTTTTTTTTTTTT MOQGAD      TELAPSE      130.40 TCPU      130.27
 TTTTTTTTTTTTTTTTTTTTTTTTTTTTTT SHELLX2     TELAPSE      133.63 TCPU      133.50
 TTTTTTTTTTTTTTTTTTTTTTTTTTTTTT MONMO3      TELAPSE      133.71 TCPU      133.57
 NUMERICALLY INTEGRATED DENSITY     76.0000074027
 TTTTTTTTTTTTTTTTTTTTTTTTTTTTTT NUMDFT      TELAPSE      135.96 TCPU      135.83
 CYC  22 ETOT(AU) -3.708647198434E+03 DETOT -1.24E-08 tst  1.77E-06 PX  5.41E-06
 TTTTTTTTTTTTTTTTTTTTTTTTTTTTTT FDIK        TELAPSE      136.22 TCPU      136.09
 INSULATING STATE
 TOP OF VALENCE BANDS -    BAND     38; K    1; EIG -1.7201868E-01 AU
 BOTTOM OF VIRTUAL BANDS - BAND     39; K    1; EIG -1.2564094E-01 AU
 TTTTTTTTTTTTTTTTTTTTTTTTTTTTTT PDIG        TELAPSE      136.27 TCPU      136.14
 TTTTTTTTTTTTTTTTTTTTTTTTTTTTTT MOQGAD      TELAPSE      136.31 TCPU      136.18
 TTTTTTTTTTTTTTTTTTTTTTTTTTTTTT SHELLX2     TELAPSE      139.54 TCPU      139.41
 TTTTTTTTTTTTTTTTTTTTTTTTTTTTTT MONMO3      TELAPSE      139.61 TCPU      139.48
 NUMERICALLY INTEGRATED DENSITY     76.0000074027
 TTTTTTTTTTTTTTTTTTTTTTTTTTTTTT NUMDFT      TELAPSE      141.87 TCPU      141.74
 CYC  23 ETOT(AU) -3.708647198443E+03 DETOT -9.41E-09 tst  1.47E-06 PX  3.93E-06
 TTTTTTTTTTTTTTTTTTTTTTTTTTTTTT FDIK        TELAPSE      142.13 TCPU      142.00
 INSULATING STATE
 TOP OF VALENCE BANDS -    BAND     38; K    1; EIG -1.7201903E-01 AU
 BOTTOM OF VIRTUAL BANDS - BAND     39; K    1; EIG -1.2564099E-01 AU
 TTTTTTTTTTTTTTTTTTTTTTTTTTTTTT PDIG        TELAPSE      142.18 TCPU      142.04
 TTTTTTTTTTTTTTTTTTTTTTTTTTTTTT MOQGAD      TELAPSE      142.21 TCPU      142.08
 TTTTTTTTTTTTTTTTTTTTTTTTTTTTTT SHELLX2     TELAPSE      145.44 TCPU      145.31
 TTTTTTTTTTTTTTTTTTTTTTTTTTTTTT MONMO3      TELAPSE      145.51 TCPU      145.38
 NUMERICALLY INTEGRATED DENSITY     76.0000074028
 TTTTTTTTTTTTTTTTTTTTTTTTTTTTTT NUMDFT      TELAPSE      147.77 TCPU      147.64
 CYC  24 ETOT(AU) -3.708647198450E+03 DETOT -7.31E-09 tst  1.22E-06 PX  3.14E-06
 TTTTTTTTTTTTTTTTTTTTTTTTTTTTTT FDIK        TELAPSE      148.03 TCPU      147.90
 INSULATING STATE
 TOP OF VALENCE BANDS -    BAND     38; K    1; EIG -1.7201930E-01 AU
 BOTTOM OF VIRTUAL BANDS - BAND     39; K    1; EIG -1.2564100E-01 AU
 TTTTTTTTTTTTTTTTTTTTTTTTTTTTTT PDIG        TELAPSE      148.08 TCPU      147.94
 TTTTTTTTTTTTTTTTTTTTTTTTTTTTTT MOQGAD      TELAPSE      148.11 TCPU      147.98
 TTTTTTTTTTTTTTTTTTTTTTTTTTTTTT SHELLX2     TELAPSE      151.34 TCPU      151.21
 TTTTTTTTTTTTTTTTTTTTTTTTTTTTTT MONMO3      TELAPSE      151.42 TCPU      151.28
 NUMERICALLY INTEGRATED DENSITY     76.0000074028
 TTTTTTTTTTTTTTTTTTTTTTTTTTTTTT NUMDFT      TELAPSE      153.67 TCPU      153.54
 CYC  25 ETOT(AU) -3.708647198456E+03 DETOT -5.53E-09 tst  1.02E-06 PX  2.54E-06
 TTTTTTTTTTTTTTTTTTTTTTTTTTTTTT FDIK        TELAPSE      153.93 TCPU      153.80
 INSULATING STATE
 TOP OF VALENCE BANDS -    BAND     38; K    1; EIG -1.7201948E-01 AU
 BOTTOM OF VIRTUAL BANDS - BAND     39; K    1; EIG -1.2564098E-01 AU
 TTTTTTTTTTTTTTTTTTTTTTTTTTTTTT PDIG        TELAPSE      153.97 TCPU      153.84
 TTTTTTTTTTTTTTTTTTTTTTTTTTTTTT MOQGAD      TELAPSE      154.01 TCPU      153.88
 TTTTTTTTTTTTTTTTTTTTTTTTTTTTTT SHELLX2     TELAPSE      157.24 TCPU      157.11
 TTTTTTTTTTTTTTTTTTTTTTTTTTTTTT MONMO3      TELAPSE      157.31 TCPU      157.18
 NUMERICALLY INTEGRATED DENSITY     76.0000074028
 TTTTTTTTTTTTTTTTTTTTTTTTTTTTTT NUMDFT      TELAPSE      159.58 TCPU      159.44
 CYC  26 ETOT(AU) -3.708647198460E+03 DETOT -4.44E-09 tst  8.45E-07 PX  2.05E-06
 TTTTTTTTTTTTTTTTTTTTTTTTTTTTTT FDIK        TELAPSE      159.82 TCPU      159.68
 INSULATING STATE
 TOP OF VALENCE BANDS -    BAND     38; K    1; EIG -1.7201960E-01 AU
 BOTTOM OF VIRTUAL BANDS - BAND     39; K    1; EIG -1.2564093E-01 AU
 TTTTTTTTTTTTTTTTTTTTTTTTTTTTTT PDIG        TELAPSE      159.86 TCPU      159.73
 TTTTTTTTTTTTTTTTTTTTTTTTTTTTTT MOQGAD      TELAPSE      159.90 TCPU      159.77
 TTTTTTTTTTTTTTTTTTTTTTTTTTTTTT SHELLX2     TELAPSE      163.13 TCPU      163.00
 TTTTTTTTTTTTTTTTTTTTTTTTTTTTTT MONMO3      TELAPSE      163.20 TCPU      163.07
 NUMERICALLY INTEGRATED DENSITY     76.0000074028
 TTTTTTTTTTTTTTTTTTTTTTTTTTTTTT NUMDFT      TELAPSE      165.46 TCPU      165.33
 CYC  27 ETOT(AU) -3.708647198464E+03 DETOT -3.52E-09 tst  7.03E-07 PX  1.65E-06
 TTTTTTTTTTTTTTTTTTTTTTTTTTTTTT FDIK        TELAPSE      165.71 TCPU      165.58
 INSULATING STATE
 TOP OF VALENCE BANDS -    BAND     38; K    1; EIG -1.7201969E-01 AU
 BOTTOM OF VIRTUAL BANDS - BAND     39; K    1; EIG -1.2564089E-01 AU
 TTTTTTTTTTTTTTTTTTTTTTTTTTTTTT PDIG        TELAPSE      165.75 TCPU      165.62
 TTTTTTTTTTTTTTTTTTTTTTTTTTTTTT MOQGAD      TELAPSE      165.79 TCPU      165.66
 TTTTTTTTTTTTTTTTTTTTTTTTTTTTTT SHELLX2     TELAPSE      169.02 TCPU      168.89
 TTTTTTTTTTTTTTTTTTTTTTTTTTTTTT MONMO3      TELAPSE      169.10 TCPU      168.96
 NUMERICALLY INTEGRATED DENSITY     76.0000074028
 TTTTTTTTTTTTTTTTTTTTTTTTTTTTTT NUMDFT      TELAPSE      171.33 TCPU      171.19
 CYC  28 ETOT(AU) -3.708647198467E+03 DETOT -2.98E-09 tst  5.84E-07 PX  1.38E-06
 TTTTTTTTTTTTTTTTTTTTTTTTTTTTTT FDIK        TELAPSE      171.57 TCPU      171.44
 INSULATING STATE
 TOP OF VALENCE BANDS -    BAND     38; K    1; EIG -1.7201975E-01 AU
 BOTTOM OF VIRTUAL BANDS - BAND     39; K    1; EIG -1.2564084E-01 AU
 TTTTTTTTTTTTTTTTTTTTTTTTTTTTTT PDIG        TELAPSE      171.62 TCPU      171.49
 TTTTTTTTTTTTTTTTTTTTTTTTTTTTTT MOQGAD      TELAPSE      171.66 TCPU      171.52
 TTTTTTTTTTTTTTTTTTTTTTTTTTTTTT SHELLX2     TELAPSE      174.89 TCPU      174.75
 TTTTTTTTTTTTTTTTTTTTTTTTTTTTTT MONMO3      TELAPSE      174.96 TCPU      174.83
 NUMERICALLY INTEGRATED DENSITY     76.0000074028
 TTTTTTTTTTTTTTTTTTTTTTTTTTTTTT NUMDFT      TELAPSE      177.19 TCPU      177.06
 CYC  29 ETOT(AU) -3.708647198469E+03 DETOT -2.54E-09 tst  4.86E-07 PX  1.11E-06
 TTTTTTTTTTTTTTTTTTTTTTTTTTTTTT FDIK        TELAPSE      177.43 TCPU      177.30
 INSULATING STATE
 TOP OF VALENCE BANDS -    BAND     38; K    1; EIG -1.7201979E-01 AU
 BOTTOM OF VIRTUAL BANDS - BAND     39; K    1; EIG -1.2564079E-01 AU
 TTTTTTTTTTTTTTTTTTTTTTTTTTTTTT PDIG        TELAPSE      177.48 TCPU      177.35
 TTTTTTTTTTTTTTTTTTTTTTTTTTTTTT MOQGAD      TELAPSE      177.52 TCPU      177.38
 TTTTTTTTTTTTTTTTTTTTTTTTTTTTTT SHELLX2     TELAPSE      180.75 TCPU      180.62
 TTTTTTTTTTTTTTTTTTTTTTTTTTTTTT MONMO3      TELAPSE      180.82 TCPU      180.69
 NUMERICALLY INTEGRATED DENSITY     76.0000074028
 TTTTTTTTTTTTTTTTTTTTTTTTTTTTTT NUMDFT      TELAPSE      183.05 TCPU      182.92
 CYC  30 ETOT(AU) -3.708647198471E+03 DETOT -2.01E-09 tst  4.04E-07 PX  9.22E-07
 TTTTTTTTTTTTTTTTTTTTTTTTTTTTTT FDIK        TELAPSE      183.29 TCPU      183.16
 INSULATING STATE
 TOP OF VALENCE BANDS -    BAND     38; K    1; EIG -1.7201982E-01 AU
 BOTTOM OF VIRTUAL BANDS - BAND     39; K    1; EIG -1.2564075E-01 AU
 TTTTTTTTTTTTTTTTTTTTTTTTTTTTTT PDIG        TELAPSE      183.34 TCPU      183.20
 TTTTTTTTTTTTTTTTTTTTTTTTTTTTTT MOQGAD      TELAPSE      183.37 TCPU      183.24
 TTTTTTTTTTTTTTTTTTTTTTTTTTTTTT SHELLX2     TELAPSE      186.60 TCPU      186.47
 TTTTTTTTTTTTTTTTTTTTTTTTTTTTTT MONMO3      TELAPSE      186.68 TCPU      186.54
 NUMERICALLY INTEGRATED DENSITY     76.0000074028
 TTTTTTTTTTTTTTTTTTTTTTTTTTTTTT NUMDFT      TELAPSE      188.92 TCPU      188.78
 CYC  31 ETOT(AU) -3.708647198473E+03 DETOT -1.70E-09 tst  3.36E-07 PX  7.75E-07
 TTTTTTTTTTTTTTTTTTTTTTTTTTTTTT FDIK        TELAPSE      189.16 TCPU      189.03
 INSULATING STATE
 TOP OF VALENCE BANDS -    BAND     38; K    1; EIG -1.7201984E-01 AU
 BOTTOM OF VIRTUAL BANDS - BAND     39; K    1; EIG -1.2564071E-01 AU
 TTTTTTTTTTTTTTTTTTTTTTTTTTTTTT PDIG        TELAPSE      189.21 TCPU      189.07
 TTTTTTTTTTTTTTTTTTTTTTTTTTTTTT MOQGAD      TELAPSE      189.24 TCPU      189.11
 TTTTTTTTTTTTTTTTTTTTTTTTTTTTTT SHELLX2     TELAPSE      192.47 TCPU      192.34
 TTTTTTTTTTTTTTTTTTTTTTTTTTTTTT MONMO3      TELAPSE      192.55 TCPU      192.41
 NUMERICALLY INTEGRATED DENSITY     76.0000074028
 TTTTTTTTTTTTTTTTTTTTTTTTTTTTTT NUMDFT      TELAPSE      194.84 TCPU      194.71
 CYC  32 ETOT(AU) -3.708647198475E+03 DETOT -1.50E-09 tst  2.79E-07 PX  6.40E-07
 TTTTTTTTTTTTTTTTTTTTTTTTTTTTTT FDIK        TELAPSE      195.07 TCPU      194.94
 INSULATING STATE
 TOP OF VALENCE BANDS -    BAND     38; K    1; EIG -1.7201985E-01 AU
 BOTTOM OF VIRTUAL BANDS - BAND     39; K    1; EIG -1.2564067E-01 AU
 TTTTTTTTTTTTTTTTTTTTTTTTTTTTTT PDIG        TELAPSE      195.12 TCPU      194.99
 TTTTTTTTTTTTTTTTTTTTTTTTTTTTTT MOQGAD      TELAPSE      195.15 TCPU      195.02
 TTTTTTTTTTTTTTTTTTTTTTTTTTTTTT SHELLX2     TELAPSE      198.39 TCPU      198.26
 TTTTTTTTTTTTTTTTTTTTTTTTTTTTTT MONMO3      TELAPSE      198.46 TCPU      198.33
 NUMERICALLY INTEGRATED DENSITY     76.0000074028
 TTTTTTTTTTTTTTTTTTTTTTTTTTTTTT NUMDFT      TELAPSE      200.81 TCPU      200.68
 CYC  33 ETOT(AU) -3.708647198476E+03 DETOT -1.16E-09 tst  2.32E-07 PX  5.36E-07
 TTTTTTTTTTTTTTTTTTTTTTTTTTTTTT FDIK        TELAPSE      201.04 TCPU      200.91
 INSULATING STATE
 TOP OF VALENCE BANDS -    BAND     38; K    1; EIG -1.7201986E-01 AU
 BOTTOM OF VIRTUAL BANDS - BAND     39; K    1; EIG -1.2564063E-01 AU
 TTTTTTTTTTTTTTTTTTTTTTTTTTTTTT PDIG        TELAPSE      201.09 TCPU      200.96
 TTTTTTTTTTTTTTTTTTTTTTTTTTTTTT MOQGAD      TELAPSE      201.13 TCPU      200.99
 TTTTTTTTTTTTTTTTTTTTTTTTTTTTTT SHELLX2     TELAPSE      204.35 TCPU      204.22
 TTTTTTTTTTTTTTTTTTTTTTTTTTTTTT MONMO3      TELAPSE      204.42 TCPU      204.29
 NUMERICALLY INTEGRATED DENSITY     76.0000074028
 TTTTTTTTTTTTTTTTTTTTTTTTTTTTTT NUMDFT      TELAPSE      206.78 TCPU      206.64
 CYC  34 ETOT(AU) -3.708647198477E+03 DETOT -1.01E-09 tst  1.93E-07 PX  4.54E-07
 TTTTTTTTTTTTTTTTTTTTTTTTTTTTTT FDIK        TELAPSE      207.00 TCPU      206.87
 INSULATING STATE
 TOP OF VALENCE BANDS -    BAND     38; K    1; EIG -1.7201986E-01 AU
 BOTTOM OF VIRTUAL BANDS - BAND     39; K    1; EIG -1.2564061E-01 AU
 TTTTTTTTTTTTTTTTTTTTTTTTTTTTTT PDIG        TELAPSE      207.05 TCPU      206.92
 TTTTTTTTTTTTTTTTTTTTTTTTTTTTTT MOQGAD      TELAPSE      207.09 TCPU      206.96
 TTTTTTTTTTTTTTTTTTTTTTTTTTTTTT SHELLX2     TELAPSE      210.31 TCPU      210.18
 TTTTTTTTTTTTTTTTTTTTTTTTTTTTTT MONMO3      TELAPSE      210.39 TCPU      210.25
 NUMERICALLY INTEGRATED DENSITY     76.0000074028
 TTTTTTTTTTTTTTTTTTTTTTTTTTTTTT NUMDFT      TELAPSE      212.74 TCPU      212.61
 CYC  35 ETOT(AU) -3.708647198478E+03 DETOT -7.83E-10 tst  1.61E-07 PX  3.88E-07
 TTTTTTTTTTTTTTTTTTTTTTTTTTTTTT FDIK        TELAPSE      212.97 TCPU      212.84
 INSULATING STATE
 TOP OF VALENCE BANDS -    BAND     38; K    1; EIG -1.7201986E-01 AU
 BOTTOM OF VIRTUAL BANDS - BAND     39; K    1; EIG -1.2564058E-01 AU
 TTTTTTTTTTTTTTTTTTTTTTTTTTTTTT PDIG        TELAPSE      213.02 TCPU      212.88
 TTTTTTTTTTTTTTTTTTTTTTTTTTTTTT MOQGAD      TELAPSE      213.05 TCPU      212.92
 TTTTTTTTTTTTTTTTTTTTTTTTTTTTTT SHELLX2     TELAPSE      216.28 TCPU      216.15
 TTTTTTTTTTTTTTTTTTTTTTTTTTTTTT MONMO3      TELAPSE      216.35 TCPU      216.22
 NUMERICALLY INTEGRATED DENSITY     76.0000074028
 TTTTTTTTTTTTTTTTTTTTTTTTTTTTTT NUMDFT      TELAPSE      218.71 TCPU      218.58
 CYC  36 ETOT(AU) -3.708647198478E+03 DETOT -7.51E-10 tst  1.33E-07 PX  3.35E-07
 TTTTTTTTTTTTTTTTTTTTTTTTTTTTTT FDIK        TELAPSE      218.94 TCPU      218.81
 INSULATING STATE
 TOP OF VALENCE BANDS -    BAND     38; K    1; EIG -1.7201986E-01 AU
 BOTTOM OF VIRTUAL BANDS - BAND     39; K    1; EIG -1.2564055E-01 AU
 TTTTTTTTTTTTTTTTTTTTTTTTTTTTTT PDIG        TELAPSE      218.99 TCPU      218.86
 TTTTTTTTTTTTTTTTTTTTTTTTTTTTTT MOQGAD      TELAPSE      219.02 TCPU      218.89
 TTTTTTTTTTTTTTTTTTTTTTTTTTTTTT SHELLX2     TELAPSE      222.25 TCPU      222.12
 TTTTTTTTTTTTTTTTTTTTTTTTTTTTTT MONMO3      TELAPSE      222.32 TCPU      222.19
 NUMERICALLY INTEGRATED DENSITY     76.0000074028
 TTTTTTTTTTTTTTTTTTTTTTTTTTTTTT NUMDFT      TELAPSE      224.68 TCPU      224.55
 CYC  37 ETOT(AU) -3.708647198479E+03 DETOT -6.71E-10 tst  1.11E-07 PX  2.79E-07
 TTTTTTTTTTTTTTTTTTTTTTTTTTTTTT FDIK        TELAPSE      224.91 TCPU      224.78
 INSULATING STATE
 TOP OF VALENCE BANDS -    BAND     38; K    1; EIG -1.7201986E-01 AU
 BOTTOM OF VIRTUAL BANDS - BAND     39; K    1; EIG -1.2564053E-01 AU
 TTTTTTTTTTTTTTTTTTTTTTTTTTTTTT PDIG        TELAPSE      224.96 TCPU      224.82
 TTTTTTTTTTTTTTTTTTTTTTTTTTTTTT MOQGAD      TELAPSE      224.99 TCPU      224.86
 TTTTTTTTTTTTTTTTTTTTTTTTTTTTTT SHELLX2     TELAPSE      228.22 TCPU      228.09
 TTTTTTTTTTTTTTTTTTTTTTTTTTTTTT MONMO3      TELAPSE      228.29 TCPU      228.16
 NUMERICALLY INTEGRATED DENSITY     76.0000074028
 TTTTTTTTTTTTTTTTTTTTTTTTTTTTTT NUMDFT      TELAPSE      230.65 TCPU      230.51
 CYC  38 ETOT(AU) -3.708647198480E+03 DETOT -5.97E-10 tst  9.23E-08 PX  2.48E-07
 TTTTTTTTTTTTTTTTTTTTTTTTTTTTTT FDIK        TELAPSE      230.88 TCPU      230.74
 INSULATING STATE
 TOP OF VALENCE BANDS -    BAND     38; K    1; EIG -1.7201986E-01 AU
 BOTTOM OF VIRTUAL BANDS - BAND     39; K    1; EIG -1.2564051E-01 AU
 TTTTTTTTTTTTTTTTTTTTTTTTTTTTTT PDIG        TELAPSE      230.92 TCPU      230.79
 TTTTTTTTTTTTTTTTTTTTTTTTTTTTTT MOQGAD      TELAPSE      230.96 TCPU      230.83
 TTTTTTTTTTTTTTTTTTTTTTTTTTTTTT SHELLX2     TELAPSE      234.19 TCPU      234.06
 TTTTTTTTTTTTTTTTTTTTTTTTTTTTTT MONMO3      TELAPSE      234.26 TCPU      234.13
 NUMERICALLY INTEGRATED DENSITY     76.0000074028
 TTTTTTTTTTTTTTTTTTTTTTTTTTTTTT NUMDFT      TELAPSE      236.61 TCPU      236.48
 CYC  39 ETOT(AU) -3.708647198480E+03 DETOT -4.97E-10 tst  7.67E-08 PX  2.15E-07
 TTTTTTTTTTTTTTTTTTTTTTTTTTTTTT FDIK        TELAPSE      236.84 TCPU      236.71
 INSULATING STATE
 TOP OF VALENCE BANDS -    BAND     38; K    1; EIG -1.7201985E-01 AU
 BOTTOM OF VIRTUAL BANDS - BAND     39; K    1; EIG -1.2564050E-01 AU
 TTTTTTTTTTTTTTTTTTTTTTTTTTTTTT PDIG        TELAPSE      236.89 TCPU      236.76
 TTTTTTTTTTTTTTTTTTTTTTTTTTTTTT MOQGAD      TELAPSE      236.92 TCPU      236.79
 TTTTTTTTTTTTTTTTTTTTTTTTTTTTTT SHELLX2     TELAPSE      240.15 TCPU      240.02
 TTTTTTTTTTTTTTTTTTTTTTTTTTTTTT MONMO3      TELAPSE      240.23 TCPU      240.10
 NUMERICALLY INTEGRATED DENSITY     76.0000074028
 TTTTTTTTTTTTTTTTTTTTTTTTTTTTTT NUMDFT      TELAPSE      242.46 TCPU      242.33
 CYC  40 ETOT(AU) -3.708647198481E+03 DETOT -4.64E-10 tst  6.38E-08 PX  1.87E-07
 TTTTTTTTTTTTTTTTTTTTTTTTTTTTTT FDIK        TELAPSE      242.69 TCPU      242.56
 INSULATING STATE
 TOP OF VALENCE BANDS -    BAND     38; K    1; EIG -1.7201985E-01 AU
 BOTTOM OF VIRTUAL BANDS - BAND     39; K    1; EIG -1.2564048E-01 AU
 TTTTTTTTTTTTTTTTTTTTTTTTTTTTTT PDIG        TELAPSE      242.74 TCPU      242.60
 TTTTTTTTTTTTTTTTTTTTTTTTTTTTTT MOQGAD      TELAPSE      242.77 TCPU      242.64
 TTTTTTTTTTTTTTTTTTTTTTTTTTTTTT SHELLX2     TELAPSE      246.00 TCPU      245.87
 TTTTTTTTTTTTTTTTTTTTTTTTTTTTTT MONMO3      TELAPSE      246.07 TCPU      245.94
 NUMERICALLY INTEGRATED DENSITY     76.0000074028
 TTTTTTTTTTTTTTTTTTTTTTTTTTTTTT NUMDFT      TELAPSE      248.30 TCPU      248.17
 CYC  41 ETOT(AU) -3.708647198481E+03 DETOT -4.13E-10 tst  5.31E-08 PX  1.66E-07
 TTTTTTTTTTTTTTTTTTTTTTTTTTTTTT FDIK        TELAPSE      248.53 TCPU      248.40
 INSULATING STATE
 TOP OF VALENCE BANDS -    BAND     38; K    1; EIG -1.7201985E-01 AU
 BOTTOM OF VIRTUAL BANDS - BAND     39; K    1; EIG -1.2564047E-01 AU
 TTTTTTTTTTTTTTTTTTTTTTTTTTTTTT PDIG        TELAPSE      248.58 TCPU      248.45
 TTTTTTTTTTTTTTTTTTTTTTTTTTTTTT MOQGAD      TELAPSE      248.61 TCPU      248.48
 TTTTTTTTTTTTTTTTTTTTTTTTTTTTTT SHELLX2     TELAPSE      251.85 TCPU      251.71
 TTTTTTTTTTTTTTTTTTTTTTTTTTTTTT MONMO3      TELAPSE      251.92 TCPU      251.79
 NUMERICALLY INTEGRATED DENSITY     76.0000074028
 TTTTTTTTTTTTTTTTTTTTTTTTTTTTTT NUMDFT      TELAPSE      254.15 TCPU      254.02
 CYC  42 ETOT(AU) -3.708647198481E+03 DETOT -3.09E-10 tst  4.41E-08 PX  1.46E-07
 TTTTTTTTTTTTTTTTTTTTTTTTTTTTTT FDIK        TELAPSE      254.38 TCPU      254.24
 INSULATING STATE
 TOP OF VALENCE BANDS -    BAND     38; K    1; EIG -1.7201984E-01 AU
 BOTTOM OF VIRTUAL BANDS - BAND     39; K    1; EIG -1.2564046E-01 AU
 TTTTTTTTTTTTTTTTTTTTTTTTTTTTTT PDIG        TELAPSE      254.42 TCPU      254.29
 TTTTTTTTTTTTTTTTTTTTTTTTTTTTTT MOQGAD      TELAPSE      254.46 TCPU      254.33
 TTTTTTTTTTTTTTTTTTTTTTTTTTTTTT SHELLX2     TELAPSE      257.69 TCPU      257.56
 TTTTTTTTTTTTTTTTTTTTTTTTTTTTTT MONMO3      TELAPSE      257.76 TCPU      257.63
 NUMERICALLY INTEGRATED DENSITY     76.0000074028
 TTTTTTTTTTTTTTTTTTTTTTTTTTTTTT NUMDFT      TELAPSE      259.99 TCPU      259.86
 CYC  43 ETOT(AU) -3.708647198482E+03 DETOT -2.87E-10 tst  3.67E-08 PX  1.28E-07
 TTTTTTTTTTTTTTTTTTTTTTTTTTTTTT FDIK        TELAPSE      260.21 TCPU      260.08
 INSULATING STATE
 TOP OF VALENCE BANDS -    BAND     38; K    1; EIG -1.7201984E-01 AU
 BOTTOM OF VIRTUAL BANDS - BAND     39; K    1; EIG -1.2564045E-01 AU
 TTTTTTTTTTTTTTTTTTTTTTTTTTTTTT PDIG        TELAPSE      260.26 TCPU      260.13
 TTTTTTTTTTTTTTTTTTTTTTTTTTTTTT MOQGAD      TELAPSE      260.30 TCPU      260.16
 TTTTTTTTTTTTTTTTTTTTTTTTTTTTTT SHELLX2     TELAPSE      263.52 TCPU      263.39
 TTTTTTTTTTTTTTTTTTTTTTTTTTTTTT MONMO3      TELAPSE      263.60 TCPU      263.47
 NUMERICALLY INTEGRATED DENSITY     76.0000074028
 TTTTTTTTTTTTTTTTTTTTTTTTTTTTTT NUMDFT      TELAPSE      265.89 TCPU      265.76
 CYC  44 ETOT(AU) -3.708647198482E+03 DETOT -2.71E-10 tst  3.05E-08 PX  1.13E-07
 TTTTTTTTTTTTTTTTTTTTTTTTTTTTTT FDIK        TELAPSE      266.11 TCPU      265.98
 INSULATING STATE
 TOP OF VALENCE BANDS -    BAND     38; K    1; EIG -1.7201984E-01 AU
 BOTTOM OF VIRTUAL BANDS - BAND     39; K    1; EIG -1.2564045E-01 AU
 TTTTTTTTTTTTTTTTTTTTTTTTTTTTTT PDIG        TELAPSE      266.16 TCPU      266.03
 TTTTTTTTTTTTTTTTTTTTTTTTTTTTTT MOQGAD      TELAPSE      266.20 TCPU      266.07
 TTTTTTTTTTTTTTTTTTTTTTTTTTTTTT SHELLX2     TELAPSE      269.42 TCPU      269.29
 TTTTTTTTTTTTTTTTTTTTTTTTTTTTTT MONMO3      TELAPSE      269.50 TCPU      269.36
 NUMERICALLY INTEGRATED DENSITY     76.0000074028
 TTTTTTTTTTTTTTTTTTTTTTTTTTTTTT NUMDFT      TELAPSE      271.85 TCPU      271.72
 CYC  45 ETOT(AU) -3.708647198482E+03 DETOT -2.61E-10 tst  2.54E-08 PX  1.01E-07
 TTTTTTTTTTTTTTTTTTTTTTTTTTTTTT FDIK        TELAPSE      272.07 TCPU      271.94
 INSULATING STATE
 TOP OF VALENCE BANDS -    BAND     38; K    1; EIG -1.7201983E-01 AU
 BOTTOM OF VIRTUAL BANDS - BAND     39; K    1; EIG -1.2564044E-01 AU
 TTTTTTTTTTTTTTTTTTTTTTTTTTTTTT PDIG        TELAPSE      272.12 TCPU      271.99
 TTTTTTTTTTTTTTTTTTTTTTTTTTTTTT MOQGAD      TELAPSE      272.15 TCPU      272.02
 TTTTTTTTTTTTTTTTTTTTTTTTTTTTTT SHELLX2     TELAPSE      275.38 TCPU      275.25
 TTTTTTTTTTTTTTTTTTTTTTTTTTTTTT MONMO3      TELAPSE      275.45 TCPU      275.32
 NUMERICALLY INTEGRATED DENSITY     76.0000074028
 TTTTTTTTTTTTTTTTTTTTTTTTTTTTTT NUMDFT      TELAPSE      277.81 TCPU      277.67
 CYC  46 ETOT(AU) -3.708647198482E+03 DETOT -1.88E-10 tst  2.11E-08 PX  8.91E-08
 TTTTTTTTTTTTTTTTTTTTTTTTTTTTTT FDIK        TELAPSE      278.03 TCPU      277.89
 INSULATING STATE
 TOP OF VALENCE BANDS -    BAND     38; K    1; EIG -1.7201983E-01 AU
 BOTTOM OF VIRTUAL BANDS - BAND     39; K    1; EIG -1.2564043E-01 AU
 TTTTTTTTTTTTTTTTTTTTTTTTTTTTTT PDIG        TELAPSE      278.07 TCPU      277.94
 TTTTTTTTTTTTTTTTTTTTTTTTTTTTTT MOQGAD      TELAPSE      278.11 TCPU      277.98
 TTTTTTTTTTTTTTTTTTTTTTTTTTTTTT SHELLX2     TELAPSE      281.34 TCPU      281.20
 TTTTTTTTTTTTTTTTTTTTTTTTTTTTTT MONMO3      TELAPSE      281.41 TCPU      281.28
 NUMERICALLY INTEGRATED DENSITY     76.0000074028
 TTTTTTTTTTTTTTTTTTTTTTTTTTTTTT NUMDFT      TELAPSE      283.76 TCPU      283.63
 CYC  47 ETOT(AU) -3.708647198482E+03 DETOT -1.71E-10 tst  1.75E-08 PX  7.89E-08
 TTTTTTTTTTTTTTTTTTTTTTTTTTTTTT FDIK        TELAPSE      283.99 TCPU      283.85
 INSULATING STATE
 TOP OF VALENCE BANDS -    BAND     38; K    1; EIG -1.7201983E-01 AU
 BOTTOM OF VIRTUAL BANDS - BAND     39; K    1; EIG -1.2564043E-01 AU
 TTTTTTTTTTTTTTTTTTTTTTTTTTTTTT PDIG        TELAPSE      284.03 TCPU      283.90
 TTTTTTTTTTTTTTTTTTTTTTTTTTTTTT MOQGAD      TELAPSE      284.07 TCPU      283.94
 TTTTTTTTTTTTTTTTTTTTTTTTTTTTTT SHELLX2     TELAPSE      287.30 TCPU      287.16
 TTTTTTTTTTTTTTTTTTTTTTTTTTTTTT MONMO3      TELAPSE      287.37 TCPU      287.24
 NUMERICALLY INTEGRATED DENSITY     76.0000074028
 TTTTTTTTTTTTTTTTTTTTTTTTTTTTTT NUMDFT      TELAPSE      289.72 TCPU      289.59
 CYC  48 ETOT(AU) -3.708647198483E+03 DETOT -1.37E-10 tst  1.46E-08 PX  7.05E-08
 TTTTTTTTTTTTTTTTTTTTTTTTTTTTTT FDIK        TELAPSE      289.95 TCPU      289.82
 INSULATING STATE
 TOP OF VALENCE BANDS -    BAND     38; K    1; EIG -1.7201983E-01 AU
 BOTTOM OF VIRTUAL BANDS - BAND     39; K    1; EIG -1.2564042E-01 AU
 TTTTTTTTTTTTTTTTTTTTTTTTTTTTTT PDIG        TELAPSE      289.99 TCPU      289.86
 TTTTTTTTTTTTTTTTTTTTTTTTTTTTTT MOQGAD      TELAPSE      290.03 TCPU      289.90
 TTTTTTTTTTTTTTTTTTTTTTTTTTTTTT SHELLX2     TELAPSE      293.26 TCPU      293.13
 TTTTTTTTTTTTTTTTTTTTTTTTTTTTTT MONMO3      TELAPSE      293.33 TCPU      293.20
 NUMERICALLY INTEGRATED DENSITY     76.0000074028
 TTTTTTTTTTTTTTTTTTTTTTTTTTTTTT NUMDFT      TELAPSE      295.68 TCPU      295.55
 CYC  49 ETOT(AU) -3.708647198483E+03 DETOT -1.42E-10 tst  1.21E-08 PX  6.35E-08
 TTTTTTTTTTTTTTTTTTTTTTTTTTTTTT FDIK        TELAPSE      295.90 TCPU      295.77
 INSULATING STATE
 TOP OF VALENCE BANDS -    BAND     38; K    1; EIG -1.7201983E-01 AU
 BOTTOM OF VIRTUAL BANDS - BAND     39; K    1; EIG -1.2564042E-01 AU
 TTTTTTTTTTTTTTTTTTTTTTTTTTTTTT PDIG        TELAPSE      295.94 TCPU      295.81
 TTTTTTTTTTTTTTTTTTTTTTTTTTTTTT MOQGAD      TELAPSE      295.98 TCPU      295.85
 TTTTTTTTTTTTTTTTTTTTTTTTTTTTTT SHELLX2     TELAPSE      299.21 TCPU      299.08
 TTTTTTTTTTTTTTTTTTTTTTTTTTTTTT MONMO3      TELAPSE      299.28 TCPU      299.15
 NUMERICALLY INTEGRATED DENSITY     76.0000074028
 TTTTTTTTTTTTTTTTTTTTTTTTTTTTTT NUMDFT      TELAPSE      301.63 TCPU      301.50
 CYC  50 ETOT(AU) -3.708647198483E+03 DETOT -1.47E-10 tst  1.01E-08 PX  5.72E-08
 TTTTTTTTTTTTTTTTTTTTTTTTTTTTTT FDIK        TELAPSE      301.85 TCPU      301.72
 INSULATING STATE
 TOP OF VALENCE BANDS -    BAND     38; K    1; EIG -1.7201982E-01 AU
 BOTTOM OF VIRTUAL BANDS - BAND     39; K    1; EIG -1.2564042E-01 AU
 TTTTTTTTTTTTTTTTTTTTTTTTTTTTTT PDIG        TELAPSE      301.90 TCPU      301.77
 TTTTTTTTTTTTTTTTTTTTTTTTTTTTTT MOQGAD      TELAPSE      301.93 TCPU      301.80
 TTTTTTTTTTTTTTTTTTTTTTTTTTTTTT SHELLX2     TELAPSE      305.16 TCPU      305.03
 TTTTTTTTTTTTTTTTTTTTTTTTTTTTTT MONMO3      TELAPSE      305.23 TCPU      305.10
 NUMERICALLY INTEGRATED DENSITY     76.0000074028
 TTTTTTTTTTTTTTTTTTTTTTTTTTTTTT NUMDFT      TELAPSE      307.59 TCPU      307.46
 CYC  51 ETOT(AU) -3.708647198483E+03 DETOT -1.18E-10 tst  8.39E-09 PX  5.23E-08
 TTTTTTTTTTTTTTTTTTTTTTTTTTTTTT FDIK        TELAPSE      307.81 TCPU      307.68
 INSULATING STATE
 TOP OF VALENCE BANDS -    BAND     38; K    1; EIG -1.7201982E-01 AU
 BOTTOM OF VIRTUAL BANDS - BAND     39; K    1; EIG -1.2564041E-01 AU
 TTTTTTTTTTTTTTTTTTTTTTTTTTTTTT PDIG        TELAPSE      307.86 TCPU      307.73
 TTTTTTTTTTTTTTTTTTTTTTTTTTTTTT MOQGAD      TELAPSE      307.89 TCPU      307.76
 TTTTTTTTTTTTTTTTTTTTTTTTTTTTTT SHELLX2     TELAPSE      311.12 TCPU      310.99
 TTTTTTTTTTTTTTTTTTTTTTTTTTTTTT MONMO3      TELAPSE      311.19 TCPU      311.06
 NUMERICALLY INTEGRATED DENSITY     76.0000074028
 TTTTTTTTTTTTTTTTTTTTTTTTTTTTTT NUMDFT      TELAPSE      313.43 TCPU      313.29
 CYC  52 ETOT(AU) -3.708647198483E+03 DETOT -8.32E-11 tst  6.98E-09 PX  4.62E-08
 TTTTTTTTTTTTTTTTTTTTTTTTTTTTTT FDIK        TELAPSE      313.64 TCPU      313.51
 INSULATING STATE
 TOP OF VALENCE BANDS -    BAND     38; K    1; EIG -1.7201982E-01 AU
 BOTTOM OF VIRTUAL BANDS - BAND     39; K    1; EIG -1.2564041E-01 AU
 TTTTTTTTTTTTTTTTTTTTTTTTTTTTTT PDIG        TELAPSE      313.69 TCPU      313.56
 TTTTTTTTTTTTTTTTTTTTTTTTTTTTTT MOQGAD      TELAPSE      313.73 TCPU      313.60
 TTTTTTTTTTTTTTTTTTTTTTTTTTTTTT SHELLX2     TELAPSE      316.95 TCPU      316.82
 ::: PSEUDO TOTAL   ENERGY                        -3.5497306876526E+03
 ::: VIRIAL COEFFICIENT                            1.0208168381460E+00
 TTTTTTTTTTTTTTTTTTTTTTTTTTTTTT MONMO3      TELAPSE      317.03 TCPU      316.90
 NUMERICALLY INTEGRATED DENSITY     76.0000074028
 TTTTTTTTTTTTTTTTTTTTTTTTTTTTTT NUMDFT      TELAPSE      319.26 TCPU      319.13
 CYC  53 ETOT(AU) -3.708647198483E+03 DETOT -1.07E-10 tst  5.80E-09 PX  4.62E-08

 == SCF ENDED - CONVERGENCE ON ENERGY      E(AU) -3.7086471984831E+03 CYCLES  53


 ENERGY EXPRESSION=HARTREE+FOCK EXCH*0.00000+(PBE        EXCH)*1.00000+PBE        CORR


 TOTAL ENERGY(DFT)(AU)( 53) -3.7086471984831E+03 DE-1.1E-10 tester 5.8E-09
 TTTTTTTTTTTTTTTTTTTTTTTTTTTTTT EDFT        TELAPSE      319.26 TCPU      319.13
 INSULATING STATE
 TOP OF VALENCE BANDS -    BAND     38; K    1; EIG -1.7201982E-01 AU
 BOTTOM OF VIRTUAL BANDS - BAND     39; K    1; EIG -1.2564040E-01 AU
 EIGENVECTORS IN FORTRAN UNIT 10
 EEEEEEEEEE SCF TERMINATION  DATE 06 05 2016 TIME 17:33:45.3

     *********************************************************************
     * ***************************************************************** *
     * *        COUPLED-PERTURBED KOHN-SHAM CALCULATION (CPKS)         * *
     * *        REFERENCES TO BE QUOTED WHEN USING THIS MODULE:        * *
     * *        (1) M. Ferrero, M. Rerat, R. Orlando, R.Dovesi,        * *
     * *            J. Comput. Chem. 29 (2008), 1450;                  * *
     * *            J. Chem. Phys. 128 (2008), 014110.                 * *
     * *        (2) M. Ferrero, M. Rerat, B. Kirtman, R. Dovesi,       * *
     * *            J. Chem. Phys. 129 (2008), 244110.                 * *
     * ***************************************************************** *
     *********************************************************************

 INFORMATION **** CP_DRIVER **** CONVERGENCE ON ALPHA: 10**          -3
 INFORMATION **** CP_DRIVER **** MAX NUMBER OF CPHF/CPKS CYCLES         200
 INFORMATION **** CP_DRIVER **** CPHF/CPKS DAMPING PERCENTAGE:          60
 STATIC FIELD (OR H*NU < 1E-15 HA)

 *******************************************************************************

 ELECTRIC FIELD APPLIED ALONG CARTESIAN DIRECTION X

 *******************************************************************************
 THE NUMBER OF SYMMETRY OPERATORS HAS BEEN REDUCED FROM 12 TO  1

 NEW GRID IN RECIPROCAL SPACE
 *******************************************************************************
 POINTS IN THE IBZ                 260 SHRINKING FACTORS               8  8  8
 *******************************************************************************
 *** K POINTS COORDINATES (OBLIQUE COORDINATES IN UNITS OF SHRINK FAC. )
   1-R(  0  0  0)   2-C(  1  0  0)   3-C(  7  1  0)   4-C(  0  7  0)
   5-C(  2  0  0)   6-C(  6  2  0)   7-C(  0  6  0)   8-C(  3  0  0)
   9-C(  5  3  0)  10-C(  0  5  0)  11-R(  4  0  0)  12-R(  4  4  0)
  13-R(  0  4  0)  14-C(  1  1  0)  15-C(  6  1  0)  16-C(  1  6  0)
  17-C(  2  1  0)  18-C(  5  2  0)  19-C(  1  5  0)  20-C(  6  3  0)
  21-C(  3  7  0)  22-C(  7  6  0)  23-C(  3  1  0)  24-C(  4  3  0)
  25-C(  1  4  0)  26-C(  5  4  0)  27-C(  4  7  0)  28-C(  7  5  0)
  29-C(  2  2  0)  30-C(  4  2  0)  31-C(  2  4  0)  32-C(  3  2  0)
  33-C(  3  3  0)  34-C(  2  3  0)  35-C(  0  0  1)  36-C(  1  0  1)
  37-C(  7  0  1)  38-C(  7  1  1)  39-C(  0  7  1)  40-C(  0  1  1)
  41-C(  1  7  1)  42-C(  2  0  1)  43-C(  6  0  1)  44-C(  6  2  1)
  45-C(  0  6  1)  46-C(  0  2  1)  47-C(  2  6  1)  48-C(  3  0  1)
  49-C(  5  0  1)  50-C(  5  3  1)  51-C(  0  5  1)  52-C(  0  3  1)
  53-C(  3  5  1)  54-C(  4  0  1)  55-C(  4  4  1)  56-C(  0  4  1)
  57-C(  1  1  1)  58-C(  7  7  1)  59-C(  6  1  1)  60-C(  1  6  1)
  61-C(  7  2  1)  62-C(  2  7  1)  63-C(  2  1  1)  64-C(  6  7  1)
  65-C(  5  2  1)  66-C(  1  5  1)  67-C(  7  3  1)  68-C(  3  6  1)
  69-C(  6  3  1)  70-C(  3  7  1)  71-C(  7  6  1)  72-C(  1  2  1)
  73-C(  5  1  1)  74-C(  2  5  1)  75-C(  3  1  1)  76-C(  5  7  1)
  77-C(  4  3  1)  78-C(  1  4  1)  79-C(  7  4  1)  80-C(  4  5  1)
  81-C(  5  4  1)  82-C(  4  7  1)  83-C(  7  5  1)  84-C(  1  3  1)
  85-C(  4  1  1)  86-C(  3  4  1)  87-C(  2  2  1)  88-C(  6  6  1)
  89-C(  4  2  1)  90-C(  2  4  1)  91-C(  6  4  1)  92-C(  4  6  1)
  93-C(  3  2  1)  94-C(  5  6  1)  95-C(  3  3  1)  96-C(  2  3  1)
  97-C(  6  5  1)  98-C(  5  5  1)  99-C(  0  0  2) 100-C(  1  0  2)
 101-C(  7  0  2) 102-C(  7  1  2) 103-C(  0  7  2) 104-C(  0  1  2)
 105-C(  1  7  2) 106-C(  2  0  2) 107-C(  6  0  2) 108-C(  6  2  2)
 109-C(  0  6  2) 110-C(  0  2  2) 111-C(  2  6  2) 112-C(  3  0  2)
 113-C(  5  0  2) 114-C(  5  3  2) 115-C(  0  5  2) 116-C(  0  3  2)
 117-C(  3  5  2) 118-C(  4  0  2) 119-C(  4  4  2) 120-C(  0  4  2)
 121-C(  1  1  2) 122-C(  7  7  2) 123-C(  6  1  2) 124-C(  1  6  2)
 125-C(  7  2  2) 126-C(  2  7  2) 127-C(  2  1  2) 128-C(  6  7  2)
 129-C(  5  2  2) 130-C(  1  5  2) 131-C(  7  3  2) 132-C(  3  6  2)
 133-C(  6  3  2) 134-C(  3  7  2) 135-C(  7  6  2) 136-C(  1  2  2)
 137-C(  5  1  2) 138-C(  2  5  2) 139-C(  3  1  2) 140-C(  5  7  2)
 141-C(  4  3  2) 142-C(  1  4  2) 143-C(  7  4  2) 144-C(  4  5  2)
 145-C(  5  4  2) 146-C(  4  7  2) 147-C(  7  5  2) 148-C(  1  3  2)
 149-C(  4  1  2) 150-C(  3  4  2) 151-C(  2  2  2) 152-C(  6  6  2)
 153-C(  4  2  2) 154-C(  2  4  2) 155-C(  6  4  2) 156-C(  4  6  2)
 157-C(  3  2  2) 158-C(  5  6  2) 159-C(  3  3  2) 160-C(  2  3  2)
 161-C(  6  5  2) 162-C(  5  5  2) 163-C(  0  0  3) 164-C(  1  0  3)
 165-C(  7  0  3) 166-C(  7  1  3) 167-C(  0  7  3) 168-C(  0  1  3)
 169-C(  1  7  3) 170-C(  2  0  3) 171-C(  6  0  3) 172-C(  6  2  3)
 173-C(  0  6  3) 174-C(  0  2  3) 175-C(  2  6  3) 176-C(  3  0  3)
 177-C(  5  0  3) 178-C(  5  3  3) 179-C(  0  5  3) 180-C(  0  3  3)
 181-C(  3  5  3) 182-C(  4  0  3) 183-C(  4  4  3) 184-C(  0  4  3)
 185-C(  1  1  3) 186-C(  7  7  3) 187-C(  6  1  3) 188-C(  1  6  3)
 189-C(  7  2  3) 190-C(  2  7  3) 191-C(  2  1  3) 192-C(  6  7  3)
 193-C(  5  2  3) 194-C(  1  5  3) 195-C(  7  3  3) 196-C(  3  6  3)
 197-C(  6  3  3) 198-C(  3  7  3) 199-C(  7  6  3) 200-C(  1  2  3)
 201-C(  5  1  3) 202-C(  2  5  3) 203-C(  3  1  3) 204-C(  5  7  3)
 205-C(  4  3  3) 206-C(  1  4  3) 207-C(  7  4  3) 208-C(  4  5  3)
 209-C(  5  4  3) 210-C(  4  7  3) 211-C(  7  5  3) 212-C(  1  3  3)
 213-C(  4  1  3) 214-C(  3  4  3) 215-C(  2  2  3) 216-C(  6  6  3)
 217-C(  4  2  3) 218-C(  2  4  3) 219-C(  6  4  3) 220-C(  4  6  3)
 221-C(  3  2  3) 222-C(  5  6  3) 223-C(  3  3  3) 224-C(  2  3  3)
 225-C(  6  5  3) 226-C(  5  5  3) 227-R(  0  0  4) 228-C(  1  0  4)
 229-C(  7  1  4) 230-C(  0  7  4) 231-C(  2  0  4) 232-C(  6  2  4)
 233-C(  0  6  4) 234-C(  3  0  4) 235-C(  5  3  4) 236-C(  0  5  4)
 237-R(  4  0  4) 238-R(  4  4  4) 239-R(  0  4  4) 240-C(  1  1  4)
 241-C(  6  1  4) 242-C(  1  6  4) 243-C(  2  1  4) 244-C(  5  2  4)
 245-C(  1  5  4) 246-C(  6  3  4) 247-C(  3  7  4) 248-C(  7  6  4)
 249-C(  3  1  4) 250-C(  4  3  4) 251-C(  1  4  4) 252-C(  5  4  4)
 253-C(  4  7  4) 254-C(  7  5  4) 255-C(  2  2  4) 256-C(  4  2  4)
 257-C(  2  4  4) 258-C(  3  2  4) 259-C(  3  3  4) 260-C(  2  3  4)

 GCALCO - MAX INDICES DIRECT LATTICE VECTOR    18    18     9
 NO.OF VECTORS CREATED 6999 STARS  372 RMAX    81.88193 BOHR

 MATRIX SIZE: P(G)   67658, F(G)   34242, P(G) IRR   35550, F(G) IRR   35550
 MAX G-VECTOR INDEX FOR 1- AND 2-ELECTRON INTEGRALS 155

 TTTTTTTTTTTTTTTTTTTTTTTTTTTTTT INPUT       TELAPSE      350.99 TCPU      350.26
 TTTTTTTTTTTTTTTTTTTTTTTTTTTTTT SYMM        TELAPSE      350.99 TCPU      350.26

 ***** NEW REFERENCE GEOMETRY *****
 TTTTTTTTTTTTTTTTTTTTTTTTTTTTTT INT_SCREEN  TELAPSE      350.99 TCPU      350.26
 INFORMATION **** EXCBUF **** EXCH. BIPO BUFFER: WORDS USED =           0

 DFT PARAMETERS

     ATOM       ELECTRONS   NET CHARGE   R(ANGSTROM)
   1  30  ZN     30.0000      0.0000     1.37000000
   3   8  O       8.0000      0.0000     0.74000000

 SIZE OF GRID=      94090
 TTTTTTTTTTTTTTTTTTTTTTTTTTTTTT MAKE_GRID2  TELAPSE      358.11 TCPU      357.38
 BECKE WEIGHT FUNCTION
 RADSAFE =     2.00
 TOLERANCES - DENSITY:10**- 6; POTENTIAL:10**- 9; GRID WGT:10**-14

 RADIAL INTEGRATION  - INTERVALS (POINTS,UPPER LIMIT):            1( 75,  4.0*R)

 ANGULAR INTEGRATION - INTERVALS (ACCURACY LEVEL [N. POINTS] UPPER LIMIT):
  1(  4[  86]   0.2)  2(  8[ 194]   0.5)  3( 12[ 350]   0.9)  4( 16[ 974]   3.5)
  5( 12[ 350]9999.0)
 TTTTTTTTTTTTTTTTTTTTTTTTTTTTTT INT_CALC    TELAPSE      358.13 TCPU      357.40
 CYCLE   0   ALPHA   93.801934  EPSILON    4.552807  DELTA    9.3802E+01
 TTTTTTTTTTTTTTTTTTTTTTTTTTTTTT MOQGAD      TELAPSE      387.15 TCPU      386.36
 TTTTTTTTTTTTTTTTTTTTTTTTTTTTTT CP_MONMON   TELAPSE      401.05 TCPU      400.23
 CYCLE   1   ALPHA   92.645402  EPSILON    4.509003  DELTA   -1.1565E+00
 TTTTTTTTTTTTTTTTTTTTTTTTTTTTTT MOQGAD      TELAPSE      419.75 TCPU      418.94
 TTTTTTTTTTTTTTTTTTTTTTTTTTTTTT CP_MONMON   TELAPSE      433.60 TCPU      432.79
 CYCLE   2   ALPHA   92.035556  EPSILON    4.485904  DELTA   -6.0985E-01
 TTTTTTTTTTTTTTTTTTTTTTTTTTTTTT MOQGAD      TELAPSE      452.30 TCPU      451.49
 TTTTTTTTTTTTTTTTTTTTTTTTTTTTTT CP_MONMON   TELAPSE      466.16 TCPU      465.35
 CYCLE   3   ALPHA   91.713012  EPSILON    4.473688  DELTA   -3.2254E-01
 TTTTTTTTTTTTTTTTTTTTTTTTTTTTTT MOQGAD      TELAPSE      484.90 TCPU      484.08
 TTTTTTTTTTTTTTTTTTTTTTTTTTTTTT CP_MONMON   TELAPSE      498.75 TCPU      497.93
 CYCLE   4   ALPHA   91.542102  EPSILON    4.467214  DELTA   -1.7091E-01
 TTTTTTTTTTTTTTTTTTTTTTTTTTTTTT MOQGAD      TELAPSE      517.45 TCPU      516.63
 TTTTTTTTTTTTTTTTTTTTTTTTTTTTTT CP_MONMON   TELAPSE      531.30 TCPU      530.49
 CYCLE   5   ALPHA   91.451468  EPSILON    4.463782  DELTA   -9.0634E-02
 TTTTTTTTTTTTTTTTTTTTTTTTTTTTTT MOQGAD      TELAPSE      550.00 TCPU      549.19
 TTTTTTTTTTTTTTTTTTTTTTTTTTTTTT CP_MONMON   TELAPSE      563.84 TCPU      563.03
 CYCLE   6   ALPHA   91.403417  EPSILON    4.461962  DELTA   -4.8051E-02
 TTTTTTTTTTTTTTTTTTTTTTTTTTTTTT MOQGAD      TELAPSE      582.54 TCPU      581.72
 TTTTTTTTTTTTTTTTTTTTTTTTTTTTTT CP_MONMON   TELAPSE      596.84 TCPU      596.02
 CYCLE   7   ALPHA   91.377975  EPSILON    4.460998  DELTA   -2.5442E-02
 TTTTTTTTTTTTTTTTTTTTTTTTTTTTTT MOQGAD      TELAPSE      615.57 TCPU      614.75
 TTTTTTTTTTTTTTTTTTTTTTTTTTTTTT CP_MONMON   TELAPSE      629.45 TCPU      628.64
 CYCLE   8   ALPHA   91.364536  EPSILON    4.460489  DELTA   -1.3439E-02
 TTTTTTTTTTTTTTTTTTTTTTTTTTTTTT MOQGAD      TELAPSE      648.18 TCPU      647.37
 TTTTTTTTTTTTTTTTTTTTTTTTTTTTTT CP_MONMON   TELAPSE      662.45 TCPU      661.63
 CYCLE   9   ALPHA   91.357463  EPSILON    4.460221  DELTA   -7.0725E-03
 TTTTTTTTTTTTTTTTTTTTTTTTTTTTTT MOQGAD      TELAPSE      681.18 TCPU      680.37
 TTTTTTTTTTTTTTTTTTTTTTTTTTTTTT CP_MONMON   TELAPSE      695.03 TCPU      694.21
 CYCLE  10   ALPHA   91.353760  EPSILON    4.460081  DELTA   -3.7034E-03
 TTTTTTTTTTTTTTTTTTTTTTTTTTTTTT MOQGAD      TELAPSE      713.76 TCPU      712.94
 TTTTTTTTTTTTTTTTTTTTTTTTTTTTTT CP_MONMON   TELAPSE      728.01 TCPU      727.20
 CYCLE  11   ALPHA   91.351834  EPSILON    4.460008  DELTA   -1.9262E-03
 TTTTTTTTTTTTTTTTTTTTTTTTTTTTTT MOQGAD      TELAPSE      746.75 TCPU      745.93
 TTTTTTTTTTTTTTTTTTTTTTTTTTTTTT CP_MONMON   TELAPSE      760.59 TCPU      759.77
 CYCLE  12   ALPHA   91.350841  EPSILON    4.459970  DELTA   -9.9287E-04
 TTTTTTTTTTTTTTTTTTTTTTTTTTTTTT CP_SC       TELAPSE      762.27 TCPU      761.43

 *******************************************************************************

 ELECTRIC FIELD APPLIED ALONG CARTESIAN DIRECTION Y

 *******************************************************************************
 THE NUMBER OF SYMMETRY OPERATORS HAS BEEN REDUCED FROM 12 TO  1

 NEW GRID IN RECIPROCAL SPACE
 *******************************************************************************
 POINTS IN THE IBZ                 260 SHRINKING FACTORS               8  8  8
 *******************************************************************************
 *** K POINTS COORDINATES (OBLIQUE COORDINATES IN UNITS OF SHRINK FAC. )
   1-R(  0  0  0)   2-C(  1  0  0)   3-C(  7  1  0)   4-C(  0  7  0)
   5-C(  2  0  0)   6-C(  6  2  0)   7-C(  0  6  0)   8-C(  3  0  0)
   9-C(  5  3  0)  10-C(  0  5  0)  11-R(  4  0  0)  12-R(  4  4  0)
  13-R(  0  4  0)  14-C(  1  1  0)  15-C(  6  1  0)  16-C(  1  6  0)
  17-C(  2  1  0)  18-C(  5  2  0)  19-C(  1  5  0)  20-C(  6  3  0)
  21-C(  3  7  0)  22-C(  7  6  0)  23-C(  3  1  0)  24-C(  4  3  0)
  25-C(  1  4  0)  26-C(  5  4  0)  27-C(  4  7  0)  28-C(  7  5  0)
  29-C(  2  2  0)  30-C(  4  2  0)  31-C(  2  4  0)  32-C(  3  2  0)
  33-C(  3  3  0)  34-C(  2  3  0)  35-C(  0  0  1)  36-C(  1  0  1)
  37-C(  7  0  1)  38-C(  7  1  1)  39-C(  0  7  1)  40-C(  0  1  1)
  41-C(  1  7  1)  42-C(  2  0  1)  43-C(  6  0  1)  44-C(  6  2  1)
  45-C(  0  6  1)  46-C(  0  2  1)  47-C(  2  6  1)  48-C(  3  0  1)
  49-C(  5  0  1)  50-C(  5  3  1)  51-C(  0  5  1)  52-C(  0  3  1)
  53-C(  3  5  1)  54-C(  4  0  1)  55-C(  4  4  1)  56-C(  0  4  1)
  57-C(  1  1  1)  58-C(  7  7  1)  59-C(  6  1  1)  60-C(  1  6  1)
  61-C(  7  2  1)  62-C(  2  7  1)  63-C(  2  1  1)  64-C(  6  7  1)
  65-C(  5  2  1)  66-C(  1  5  1)  67-C(  7  3  1)  68-C(  3  6  1)
  69-C(  6  3  1)  70-C(  3  7  1)  71-C(  7  6  1)  72-C(  1  2  1)
  73-C(  5  1  1)  74-C(  2  5  1)  75-C(  3  1  1)  76-C(  5  7  1)
  77-C(  4  3  1)  78-C(  1  4  1)  79-C(  7  4  1)  80-C(  4  5  1)
  81-C(  5  4  1)  82-C(  4  7  1)  83-C(  7  5  1)  84-C(  1  3  1)
  85-C(  4  1  1)  86-C(  3  4  1)  87-C(  2  2  1)  88-C(  6  6  1)
  89-C(  4  2  1)  90-C(  2  4  1)  91-C(  6  4  1)  92-C(  4  6  1)
  93-C(  3  2  1)  94-C(  5  6  1)  95-C(  3  3  1)  96-C(  2  3  1)
  97-C(  6  5  1)  98-C(  5  5  1)  99-C(  0  0  2) 100-C(  1  0  2)
 101-C(  7  0  2) 102-C(  7  1  2) 103-C(  0  7  2) 104-C(  0  1  2)
 105-C(  1  7  2) 106-C(  2  0  2) 107-C(  6  0  2) 108-C(  6  2  2)
 109-C(  0  6  2) 110-C(  0  2  2) 111-C(  2  6  2) 112-C(  3  0  2)
 113-C(  5  0  2) 114-C(  5  3  2) 115-C(  0  5  2) 116-C(  0  3  2)
 117-C(  3  5  2) 118-C(  4  0  2) 119-C(  4  4  2) 120-C(  0  4  2)
 121-C(  1  1  2) 122-C(  7  7  2) 123-C(  6  1  2) 124-C(  1  6  2)
 125-C(  7  2  2) 126-C(  2  7  2) 127-C(  2  1  2) 128-C(  6  7  2)
 129-C(  5  2  2) 130-C(  1  5  2) 131-C(  7  3  2) 132-C(  3  6  2)
 133-C(  6  3  2) 134-C(  3  7  2) 135-C(  7  6  2) 136-C(  1  2  2)
 137-C(  5  1  2) 138-C(  2  5  2) 139-C(  3  1  2) 140-C(  5  7  2)
 141-C(  4  3  2) 142-C(  1  4  2) 143-C(  7  4  2) 144-C(  4  5  2)
 145-C(  5  4  2) 146-C(  4  7  2) 147-C(  7  5  2) 148-C(  1  3  2)
 149-C(  4  1  2) 150-C(  3  4  2) 151-C(  2  2  2) 152-C(  6  6  2)
 153-C(  4  2  2) 154-C(  2  4  2) 155-C(  6  4  2) 156-C(  4  6  2)
 157-C(  3  2  2) 158-C(  5  6  2) 159-C(  3  3  2) 160-C(  2  3  2)
 161-C(  6  5  2) 162-C(  5  5  2) 163-C(  0  0  3) 164-C(  1  0  3)
 165-C(  7  0  3) 166-C(  7  1  3) 167-C(  0  7  3) 168-C(  0  1  3)
 169-C(  1  7  3) 170-C(  2  0  3) 171-C(  6  0  3) 172-C(  6  2  3)
 173-C(  0  6  3) 174-C(  0  2  3) 175-C(  2  6  3) 176-C(  3  0  3)
 177-C(  5  0  3) 178-C(  5  3  3) 179-C(  0  5  3) 180-C(  0  3  3)
 181-C(  3  5  3) 182-C(  4  0  3) 183-C(  4  4  3) 184-C(  0  4  3)
 185-C(  1  1  3) 186-C(  7  7  3) 187-C(  6  1  3) 188-C(  1  6  3)
 189-C(  7  2  3) 190-C(  2  7  3) 191-C(  2  1  3) 192-C(  6  7  3)
 193-C(  5  2  3) 194-C(  1  5  3) 195-C(  7  3  3) 196-C(  3  6  3)
 197-C(  6  3  3) 198-C(  3  7  3) 199-C(  7  6  3) 200-C(  1  2  3)
 201-C(  5  1  3) 202-C(  2  5  3) 203-C(  3  1  3) 204-C(  5  7  3)
 205-C(  4  3  3) 206-C(  1  4  3) 207-C(  7  4  3) 208-C(  4  5  3)
 209-C(  5  4  3) 210-C(  4  7  3) 211-C(  7  5  3) 212-C(  1  3  3)
 213-C(  4  1  3) 214-C(  3  4  3) 215-C(  2  2  3) 216-C(  6  6  3)
 217-C(  4  2  3) 218-C(  2  4  3) 219-C(  6  4  3) 220-C(  4  6  3)
 221-C(  3  2  3) 222-C(  5  6  3) 223-C(  3  3  3) 224-C(  2  3  3)
 225-C(  6  5  3) 226-C(  5  5  3) 227-R(  0  0  4) 228-C(  1  0  4)
 229-C(  7  1  4) 230-C(  0  7  4) 231-C(  2  0  4) 232-C(  6  2  4)
 233-C(  0  6  4) 234-C(  3  0  4) 235-C(  5  3  4) 236-C(  0  5  4)
 237-R(  4  0  4) 238-R(  4  4  4) 239-R(  0  4  4) 240-C(  1  1  4)
 241-C(  6  1  4) 242-C(  1  6  4) 243-C(  2  1  4) 244-C(  5  2  4)
 245-C(  1  5  4) 246-C(  6  3  4) 247-C(  3  7  4) 248-C(  7  6  4)
 249-C(  3  1  4) 250-C(  4  3  4) 251-C(  1  4  4) 252-C(  5  4  4)
 253-C(  4  7  4) 254-C(  7  5  4) 255-C(  2  2  4) 256-C(  4  2  4)
 257-C(  2  4  4) 258-C(  3  2  4) 259-C(  3  3  4) 260-C(  2  3  4)

 GCALCO - MAX INDICES DIRECT LATTICE VECTOR    18    18     9
 NO.OF VECTORS CREATED 6999 STARS  372 RMAX    81.88193 BOHR

 MATRIX SIZE: P(G)   67658, F(G)   34242, P(G) IRR   35550, F(G) IRR   35550
 MAX G-VECTOR INDEX FOR 1- AND 2-ELECTRON INTEGRALS 155

 TTTTTTTTTTTTTTTTTTTTTTTTTTTTTT INPUT       TELAPSE      778.10 TCPU      777.23
 TTTTTTTTTTTTTTTTTTTTTTTTTTTTTT SYMM        TELAPSE      778.10 TCPU      777.23

 ***** NEW REFERENCE GEOMETRY *****
 TTTTTTTTTTTTTTTTTTTTTTTTTTTTTT INT_SCREEN  TELAPSE      778.10 TCPU      777.23
 INFORMATION **** EXCBUF **** EXCH. BIPO BUFFER: WORDS USED =           0

 DFT PARAMETERS

     ATOM       ELECTRONS   NET CHARGE   R(ANGSTROM)
   1  30  ZN     30.0000      0.0000     1.37000000
[...]
 INSULATING STATE
 TOP OF VALENCE BANDS -    BAND     38; K    1; EIG -1.7201983E-01 AU
 BOTTOM OF VIRTUAL BANDS - BAND     39; K    1; EIG -1.2564044E-01 AU
 TTTTTTTTTTTTTTTTTTTTTTTTTTTTTT PDIG        TELAPSE     2721.75 TCPU     2720.53
 TTTTTTTTTTTTTTTTTTTTTTTTTTTTTT MOQGAD      TELAPSE     2721.79 TCPU     2720.57
 TTTTTTTTTTTTTTTTTTTTTTTTTTTTTT SHELLX2     TELAPSE     2725.02 TCPU     2723.80
 TTTTTTTTTTTTTTTTTTTTTTTTTTTTTT MONMO3      TELAPSE     2725.09 TCPU     2723.88
 NUMERICALLY INTEGRATED DENSITY     76.0000074028
 TTTTTTTTTTTTTTTTTTTTTTTTTTTTTT NUMDFT      TELAPSE     2727.32 TCPU     2726.10
 CYC  46 ETOT(AU) -3.708647198482E+03 DETOT -2.01E-10 tst  2.11E-08 PX  8.92E-08
 TTTTTTTTTTTTTTTTTTTTTTTTTTTTTT FDIK        TELAPSE     2727.54 TCPU     2726.32
 INSULATING STATE
 TOP OF VALENCE BANDS -    BAND     38; K    1; EIG -1.7201983E-01 AU
 BOTTOM OF VIRTUAL BANDS - BAND     39; K    1; EIG -1.2564043E-01 AU
 TTTTTTTTTTTTTTTTTTTTTTTTTTTTTT PDIG        TELAPSE     2727.58 TCPU     2726.37
 TTTTTTTTTTTTTTTTTTTTTTTTTTTTTT MOQGAD      TELAPSE     2727.62 TCPU     2726.40
 TTTTTTTTTTTTTTTTTTTTTTTTTTTTTT SHELLX2     TELAPSE     2730.85 TCPU     2729.63
 TTTTTTTTTTTTTTTTTTTTTTTTTTTTTT MONMO3      TELAPSE     2730.92 TCPU     2729.71
 NUMERICALLY INTEGRATED DENSITY     76.0000074028
 TTTTTTTTTTTTTTTTTTTTTTTTTTTTTT NUMDFT      TELAPSE     2733.15 TCPU     2731.93
 CYC  47 ETOT(AU) -3.708647198482E+03 DETOT -1.58E-10 tst  1.75E-08 PX  7.89E-08
 TTTTTTTTTTTTTTTTTTTTTTTTTTTTTT FDIK        TELAPSE     2733.37 TCPU     2732.15
 INSULATING STATE
 TOP OF VALENCE BANDS -    BAND     38; K    1; EIG -1.7201983E-01 AU
 BOTTOM OF VIRTUAL BANDS - BAND     39; K    1; EIG -1.2564043E-01 AU
 TTTTTTTTTTTTTTTTTTTTTTTTTTTTTT PDIG        TELAPSE     2733.41 TCPU     2732.20
 TTTTTTTTTTTTTTTTTTTTTTTTTTTTTT MOQGAD      TELAPSE     2733.45 TCPU     2732.23
 TTTTTTTTTTTTTTTTTTTTTTTTTTTTTT SHELLX2     TELAPSE     2736.68 TCPU     2735.46
 TTTTTTTTTTTTTTTTTTTTTTTTTTTTTT MONMO3      TELAPSE     2736.76 TCPU     2735.54
 NUMERICALLY INTEGRATED DENSITY     76.0000074028
 TTTTTTTTTTTTTTTTTTTTTTTTTTTTTT NUMDFT      TELAPSE     2738.98 TCPU     2737.77
 CYC  48 ETOT(AU) -3.708647198483E+03 DETOT -1.46E-10 tst  1.46E-08 PX  7.05E-08
 TTTTTTTTTTTTTTTTTTTTTTTTTTTTTT FDIK        TELAPSE     2739.20 TCPU     2737.98
 INSULATING STATE
 TOP OF VALENCE BANDS -    BAND     38; K    1; EIG -1.7201983E-01 AU
 BOTTOM OF VIRTUAL BANDS - BAND     39; K    1; EIG -1.2564042E-01 AU
 TTTTTTTTTTTTTTTTTTTTTTTTTTTTTT PDIG        TELAPSE     2739.25 TCPU     2738.03
 TTTTTTTTTTTTTTTTTTTTTTTTTTTTTT MOQGAD      TELAPSE     2739.29 TCPU     2738.07
 TTTTTTTTTTTTTTTTTTTTTTTTTTTTTT SHELLX2     TELAPSE     2742.52 TCPU     2741.30
 TTTTTTTTTTTTTTTTTTTTTTTTTTTTTT MONMO3      TELAPSE     2742.59 TCPU     2741.37
 NUMERICALLY INTEGRATED DENSITY     76.0000074028
 TTTTTTTTTTTTTTTTTTTTTTTTTTTTTT NUMDFT      TELAPSE     2744.82 TCPU     2743.60
 CYC  49 ETOT(AU) -3.708647198483E+03 DETOT -1.46E-10 tst  1.21E-08 PX  6.35E-08
 TTTTTTTTTTTTTTTTTTTTTTTTTTTTTT FDIK        TELAPSE     2745.03 TCPU     2743.81
 INSULATING STATE
 TOP OF VALENCE BANDS -    BAND     38; K    1; EIG -1.7201983E-01 AU
 BOTTOM OF VIRTUAL BANDS - BAND     39; K    1; EIG -1.2564042E-01 AU
 TTTTTTTTTTTTTTTTTTTTTTTTTTTTTT PDIG        TELAPSE     2745.08 TCPU     2743.86
 TTTTTTTTTTTTTTTTTTTTTTTTTTTTTT MOQGAD      TELAPSE     2745.11 TCPU     2743.90
 TTTTTTTTTTTTTTTTTTTTTTTTTTTTTT SHELLX2     TELAPSE     2748.35 TCPU     2747.13
 TTTTTTTTTTTTTTTTTTTTTTTTTTTTTT MONMO3      TELAPSE     2748.42 TCPU     2747.21
 NUMERICALLY INTEGRATED DENSITY     76.0000074028
 TTTTTTTTTTTTTTTTTTTTTTTTTTTTTT NUMDFT      TELAPSE     2750.66 TCPU     2749.44
 CYC  50 ETOT(AU) -3.708647198483E+03 DETOT -1.47E-10 tst  1.01E-08 PX  5.71E-08
 TTTTTTTTTTTTTTTTTTTTTTTTTTTTTT FDIK        TELAPSE     2750.88 TCPU     2749.66
 INSULATING STATE
 TOP OF VALENCE BANDS -    BAND     38; K    1; EIG -1.7201982E-01 AU
 BOTTOM OF VIRTUAL BANDS - BAND     39; K    1; EIG -1.2564042E-01 AU
 TTTTTTTTTTTTTTTTTTTTTTTTTTTTTT PDIG        TELAPSE     2750.92 TCPU     2749.70
 TTTTTTTTTTTTTTTTTTTTTTTTTTTTTT MOQGAD      TELAPSE     2750.96 TCPU     2749.74
 TTTTTTTTTTTTTTTTTTTTTTTTTTTTTT SHELLX2     TELAPSE     2754.19 TCPU     2752.97
 TTTTTTTTTTTTTTTTTTTTTTTTTTTTTT MONMO3      TELAPSE     2754.26 TCPU     2753.04
 NUMERICALLY INTEGRATED DENSITY     76.0000074028
 TTTTTTTTTTTTTTTTTTTTTTTTTTTTTT NUMDFT      TELAPSE     2756.49 TCPU     2755.28
 CYC  51 ETOT(AU) -3.708647198483E+03 DETOT -1.21E-10 tst  8.39E-09 PX  5.22E-08
 TTTTTTTTTTTTTTTTTTTTTTTTTTTTTT FDIK        TELAPSE     2756.71 TCPU     2755.49
 INSULATING STATE
 TOP OF VALENCE BANDS -    BAND     38; K    1; EIG -1.7201982E-01 AU
 BOTTOM OF VIRTUAL BANDS - BAND     39; K    1; EIG -1.2564041E-01 AU
 TTTTTTTTTTTTTTTTTTTTTTTTTTTTTT PDIG        TELAPSE     2756.76 TCPU     2755.54
 TTTTTTTTTTTTTTTTTTTTTTTTTTTTTT MOQGAD      TELAPSE     2756.79 TCPU     2755.58
 TTTTTTTTTTTTTTTTTTTTTTTTTTTTTT SHELLX2     TELAPSE     2760.02 TCPU     2758.81
 TTTTTTTTTTTTTTTTTTTTTTTTTTTTTT MONMO3      TELAPSE     2760.10 TCPU     2758.88
 NUMERICALLY INTEGRATED DENSITY     76.0000074028
 TTTTTTTTTTTTTTTTTTTTTTTTTTTTTT NUMDFT      TELAPSE     2762.32 TCPU     2761.11
 CYC  52 ETOT(AU) -3.708647198483E+03 DETOT -8.69E-11 tst  6.98E-09 PX  4.63E-08
 TTTTTTTTTTTTTTTTTTTTTTTTTTTTTT FDIK        TELAPSE     2762.54 TCPU     2761.32
 INSULATING STATE
 TOP OF VALENCE BANDS -    BAND     38; K    1; EIG -1.7201982E-01 AU
 BOTTOM OF VIRTUAL BANDS - BAND     39; K    1; EIG -1.2564041E-01 AU
 TTTTTTTTTTTTTTTTTTTTTTTTTTTTTT PDIG        TELAPSE     2762.58 TCPU     2761.37
 TTTTTTTTTTTTTTTTTTTTTTTTTTTTTT MOQGAD      TELAPSE     2762.62 TCPU     2761.40
 TTTTTTTTTTTTTTTTTTTTTTTTTTTTTT SHELLX2     TELAPSE     2765.85 TCPU     2764.63
 ::: PSEUDO TOTAL   ENERGY                        -3.5497306876527E+03
 ::: VIRIAL COEFFICIENT                            1.0208168381471E+00
 TTTTTTTTTTTTTTTTTTTTTTTTTTTTTT MONMO3      TELAPSE     2765.93 TCPU     2764.71
 NUMERICALLY INTEGRATED DENSITY     76.0000074028
 TTTTTTTTTTTTTTTTTTTTTTTTTTTTTT NUMDFT      TELAPSE     2768.15 TCPU     2766.93
 CYC  53 ETOT(AU) -3.708647198483E+03 DETOT -6.05E-11 tst  5.80E-09 PX  4.63E-08

 == SCF ENDED - CONVERGENCE ON ENERGY      E(AU) -3.7086471984831E+03 CYCLES  53


 ENERGY EXPRESSION=HARTREE+FOCK EXCH*0.00000+(PBE        EXCH)*1.00000+PBE        CORR


 TOTAL ENERGY(DFT)(AU)( 53) -3.7086471984831E+03 DE-6.0E-11 tester 5.8E-09
 TTTTTTTTTTTTTTTTTTTTTTTTTTTTTT EDFT        TELAPSE     2768.15 TCPU     2766.93

 *******************************************************************************
 *                             FORCE CALCULATION                               *
 *******************************************************************************

 TTTTTTTTTTTTTTTTTTTTTTTTTTTTTT NUMDFG      TELAPSE     2780.44 TCPU     2779.22
 INFORMATION **** EXCPOG **** EXCH. BIPO BUFFER LENGTH (WORDS) =           0
 INFORMATION **** GENPOG **** BIPO BUFFER LENGTH (WORDS) =      214400
 TTTTTTTTTTTTTTTTTTTTTTTTTTTTTT SHELXG      TELAPSE     2793.16 TCPU     2791.94

 CARTESIAN FORCES IN HARTREE/BOHR (ANALYTICAL)
   ATOM                     X                   Y                   Z
   1  30             1.992927038902E-14 -5.830188658037E-15  1.834864595243E-04
   2  30            -1.911312988772E-14  4.756943187616E-15  1.834864595427E-04
   3   8             1.059389740664E-14 -2.289299324325E-15 -1.834864590955E-04
   4   8            -1.140078604940E-14  3.357918865477E-15 -1.834864591136E-04

 RESULTANT FORCE     9.251858538542E-18 -4.625929269270E-18  8.579803534303E-13

 SYMMETRY ALLOWED FORCES (ANALYTICAL) (DIRECTION, FORCE)

    1  3.6697292E-04
 TTTTTTTTTTTTTTTTTTTTTTTTTTTTTT TOTGRA      TELAPSE     2793.50 TCPU     2792.28

 HHHHHHHHHHHHHHHHHHHHHHHHHHHHHHHHHHHHHHHHHHHHHHHHHHHHHHHHHHHHHHHHHHHHHHHHHHHHHHH
                   FORCE CONSTANT MATRIX - NUMERICAL ESTIMATE
 HHHHHHHHHHHHHHHHHHHHHHHHHHHHHHHHHHHHHHHHHHHHHHHHHHHHHHHHHHHHHHHHHHHHHHHHHHHHHHH
 MAX ABS(DGRAD): MAXIMUM ABSOLUTE GRADIENT DIFFERENCE WITH RESPECT TO
                 THE CENTRAL POINT
 DE:             ENERGY DIFFERENCE WITH RESPECT TO THE CENTRAL POINT
                 (DE IS EXPECTED TO BE POSITIVE FOR ALL DISPLACEMENTS)

   ATOM      MAX ABS(DGRAD)       TOTAL ENERGY (AU)  N.CYC      DE       SYM
    CENTRAL POINT             -3.708647198483E+03    53     0.0000E+00    12
    1 ZN DX   4.5188E-04      -3.708647197193E+03     7     1.2897E-06     2
    1 ZN DY                   GENERATED FROM A PREVIOUS LINE
    1 ZN DZ   6.6399E-04      -3.708647195804E+03    21     2.6786E-06     6
    3 O  DX   4.7718E-04      -3.708647197126E+03     7     1.3570E-06     2
    3 O  DY                   GENERATED FROM A PREVIOUS LINE
    3 O  DZ   6.4472E-04      -3.708647197434E+03    21     1.0493E-06     6

 GCALCO - MAX INDICES DIRECT LATTICE VECTOR    18    18     9
 NO.OF VECTORS CREATED 6999 STARS  372 RMAX    81.88193 BOHR

 CAPPA:IS1  8;IS2  8;IS3  8; K PTS MONK NET  50; SYMMOPS:K SPACE  24;G SPACE  12


 MATRIX SIZE: P(G)   67658, F(G)   34242, P(G) IRR    6168, F(G) IRR    6168
 MAX G-VECTOR INDEX FOR 1- AND 2-ELECTRON INTEGRALS 155

 TTTTTTTTTTTTTTTTTTTTTTTTTTTTTT INPUT       TELAPSE     3882.43 TCPU     3879.08

 SYMMETRY ALLOWED INTERNAL DEGREE(S) OF FREEDOM:   1
 TTTTTTTTTTTTTTTTTTTTTTTTTTTTTT SYMM        TELAPSE     3882.43 TCPU     3879.08
 TTTTTTTTTTTTTTTTTTTTTTTTTTTTTT INT_SCREEN  TELAPSE     3882.43 TCPU     3879.08

 ATOMIC BORN CHARGE TENSOR (UNITS OF e, ELECTRON CHARGE).
 DYNAMIC CHARGE = 1/3 * TRACE .

 ATOM   1 ZN DYNAMIC CHARGE     2.088405

              1           2           3
   1     2.0710E+00  0.0000E+00  8.8233E-23
   2     0.0000E+00  2.0710E+00  0.0000E+00
   3    -1.1029E-24 -5.5145E-25  2.1232E+00

 ATOM   2 ZN DYNAMIC CHARGE     2.088405

              1           2           3
   1     2.0710E+00  0.0000E+00  0.0000E+00
   2     0.0000E+00  2.0710E+00  0.0000E+00
   3    -1.1029E-24 -5.5145E-25  2.1232E+00

 ATOM   3 O  DYNAMIC CHARGE    -2.088409

              1           2           3
   1    -2.0710E+00  0.0000E+00  1.7647E-23
   2     0.0000E+00 -2.0710E+00  0.0000E+00
   3    -8.8233E-24  2.2058E-23 -2.1232E+00

 ATOM   4 O  DYNAMIC CHARGE    -2.088409

              1           2           3
   1    -2.0710E+00  0.0000E+00  0.0000E+00
   2     0.0000E+00 -2.0710E+00  0.0000E+00
   3    -8.8233E-24  4.4116E-24 -2.1232E+00

 +++ SYMMETRY ADAPTION OF VIBRATIONAL MODES +++

 SYMMETRY INFORMATION:
 K-LITTLE GROUP: CLASS TABLE, CHARACTER TABLE.
 IRREP-(DIMENSION, NO. IRREDUCIBLE SETS)
 [WARNINGS: (1) ONLY ACTIVE IRREPS ARE GENERATED AND LISTED.
            (2) ONLY RELEVANT CLASSES ARE CONSIDERED IN THE CHARACTER TABLE
            (3) SYMBOLS MAY NOT FULLY COINCIDE WITH THOSE FROM TEXT BOOKS.]

 (P, D, RP, RD, STAND FOR PAIRING, DOUBLING, REAL PAIRING AND REAL DOUBLING 
 OF THE IRREPS (SEE MANUAL))

 CLASS  | GROUP OPERATORS (SEE SYMMOPS KEYWORD)
 --------------------------------------------------------------------
 C2     |   2;
 C3     |   3;   4;
 C6     |   5;   6;
 SGV    |   7;   8;   9;
 SGV'   |  10;  12;  11;

 IRREP/CLA      E     C2     C3     C6    SGV   SGV'
 ---------------------------------------------------
  MULTIP |      1      1      2      2      3      3
 ---------------------------------------------------
    A    |   1.00   1.00   1.00   1.00   1.00   1.00
    B    |   1.00  -1.00   1.00  -1.00   1.00  -1.00
    E1   |   2.00  -2.00  -1.00   1.00   0.00   0.00
    E2   |   2.00   2.00  -1.00  -1.00   0.00   0.00
 
 A  -(1,   2); B  -(1,   2); E1 -(2,   2); E2 -(2,   2);


 BORN CHARGE VECTOR IN THE BASIS OF NORMAL MODES (UNITS OF e*M_E**(-1/2) ).
 e AND M_E ARE UNITS OF ELECTRON CHARGE AND MASS, RESPECTIVELY.

 MODE         X              Y              Z
   1    0.19608E-24    0.00000E+00   -0.78177E-04
   2   -0.45224E-07    0.00000E+00   -0.36777E-25
   3    0.00000E+00   -0.45224E-07    0.46993E-25
   4    0.00000E+00    0.13002E-17   -0.28888E-25
   5   -0.65009E-18    0.00000E+00    0.00000E+00
   6   -0.19015E-24    0.00000E+00    0.00000E+00
   7   -0.17183E-25    0.00000E+00   -0.19662E-01
   8   -0.19179E-01    0.00000E+00   -0.63312E-25
   9    0.00000E+00   -0.19179E-01    0.99056E-25
  10    0.00000E+00    0.00000E+00    0.67123E-25
  11    0.13002E-17    0.00000E+00    0.00000E+00
  12   -0.50830E-25    0.00000E+00    0.00000E+00

 HHHHHHHHHHHHHHHHHHHHHHHHHHHHHHHHHHHHHHHHHHHHHHHHHHHHHHHHHHHHHHHHHHHHHHHHHHHHHH
 VIBRATIONAL CONTRIBUTIONS TO THE STATIC DIELECTRIC TENSOR (OSCILLATOR
 STRENGTHS) ARE PURE NUMBERS. THEY ARE COMPUTED FOR EACH nth MODE AS:

   f_(n,ij) = 1 / (4 * pi * eps0) * 4 * pi / V * Z_(n,i) * Z_(n,j) / nu_n**2

 WHERE:
  1/(4*pi*eps0)  1 A.U. [M*L**3*T**(-4)*C**(-2)]
  V              CELL VOLUME (BOHR**3) [L**3]
  Z_(n,i)        ith COMPONENT OF BORN CHARGE VECTOR IN THE BASIS
                 OF NORMAL MODES ( e*M_E**(-1/2) ) [C*T*M**(-1/2)]
  nu_n           FREQUENCY (HARTREE) [T**(-1)]
  e, M_E         UNITS OF ELECTRON CHARGE AND MASS, RESPECTIVELY
  M, L, T, C     MASS, LENGTH, TIME, CURRENT, RESPECTIVELY

 HHHHHHHHHHHHHHHHHHHHHHHHHHHHHHHHHHHHHHHHHHHHHHHHHHHHHHHHHHHHHHHHHHHHHHHHHHHHHH

 MODE      CARTESIAN AXES SYSTEM

   7       0.00000    0.00000    0.00000
           0.00000    0.00000    0.00000
           0.00000    0.00000    5.06189

   8       4.23484    0.00000    0.00000
           0.00000    0.00000    0.00000
           0.00000    0.00000    0.00000

   9       0.00000    0.00000    0.00000
           0.00000    4.23484   -0.00000
           0.00000   -0.00000    0.00000

 SUM TENSOR OF THE VIBRATIONAL CONTRIBUTIONS TO THE STATIC DIELECTRIC     TENSOR

           4.23484    0.00000    0.00000
           0.00000    4.23484   -0.00000
           0.00000   -0.00000    5.06189

 INTEGRATED IR INTENSITIES, IN UNITS OF KM/MOL, ARE COMPUTED UNDER THE
 HYPOTHESIS OF ISOTROPIC RESPONSE (I.E. POWDER SAMPLE):

   INTENS_n = 1 / (4 * pi * eps0) * pi * N_AV / 3 / c**2 *
                             * d_n * ( Z_(n,x)**2 + Z_(n,y)**2 + Z_(n,z)**2 )
            = 0.17770712E+07 * d_n * ( Z_(n,x)**2 + Z_(n,y)**2 + Z_(n,z)**2 )

 WHERE:
  1/(4*pi*eps0)  1 A.U. [M*L**3*T**(-4)*C**(-2)]
  N_AV           AVOGADRO'S NUMBER [QM**(-1)]
  c              SPEED OF LIGHT [L*T**(-1)]
  d_n            DEGENERACY OF THE MODE
  Z_(n,x)        xth COMPONENT OF BORN CHARGE VECTOR IN THE BASIS
                 OF NORMAL MODES ( e*M_E**(-1/2) ) [C*T*M**(-1/2)]
  M,L,T,C,QM     MASS, LENGTH, TIME, CURRENT, QUANTITY OF MATTER, RESPECTIVELY

 HHHHHHHHHHHHHHHHHHHHHHHHHHHHHHHHHHHHHHHHHHHHHHHHHHHHHHHHHHHHHHHHHHHHHHHHHHHHHH
 EIGENVALUES (EIGV) OF THE MASS WEIGHTED HESSIAN MATRIX AND HARMONIC TRANSVERSE
 OPTICAL (TO) FREQUENCIES. IRREP LABELS REFER TO SYMMETRY REPRESENTATION
 ANALYSIS; A AND I INDICATE WHETHER THE MODE IS ACTIVE OR INACTIVE,
 RESPECTIVELY, FOR IR AND RAMAN; INTEGRATED IR INTENSITIES IN BRACKETS.

 CONVERSION FACTORS FOR FREQUENCIES:
      1 CM**(-1) =   0.2194746E+06 HARTREE
      1 THZ      =   0.2997925E-01 CM**(-1)

 HHHHHHHHHHHHHHHHHHHHHHHHHHHHHHHHHHHHHHHHHHHHHHHHHHHHHHHHHHHHHHHHHHHHHHHHHHHHHH

    MODES         EIGV          FREQUENCIES     IRREP  IR   INTENS    RAMAN
             (HARTREE**2)   (CM**-1)     (THZ)             (KM/MOL)
    1-   1   -0.4570E-10     -1.4837   -0.0445  (A  )   A (     0.01)   A
    2-   3   -0.2352E-15      0.0000    0.0000  (E1 )   A (     0.00)   A
    4-   5    0.1566E-06     86.8472    2.6036  (E2 )   I (     0.00)   A
    6-   6    0.1363E-05    256.2053    7.6808  (B  )   I (     0.00)   I
    7-   7    0.2893E-05    373.2768   11.1906  (A  )   A (   686.99)   A
    8-   9    0.3290E-05    398.0711   11.9339  (E1 )   A (  1307.27)   A
   10-  11    0.3695E-05    421.9038   12.6484  (E2 )   I (     0.00)   A
   12-  12    0.5556E-05    517.3058   15.5084  (B  )   I (     0.00)   I

 NORMAL MODES NORMALIZED TO CLASSICAL AMPLITUDES

 FREQ(CM**-1)     -1.48      0.00      0.00     86.85     86.85    256.21

 AT.   1 ZN X     0.0000    0.0791    0.0000    0.0000    0.0956    0.0000
            Y     0.0000    0.0000    0.0791    0.0956    0.0000    0.0000
            Z     0.7111    0.0000    0.0000    0.0000    0.0000   -0.0602
 AT.   2 ZN X     0.0000    0.0791    0.0000    0.0000   -0.0956    0.0000
            Y     0.0000    0.0000    0.0791   -0.0956    0.0000    0.0000
            Z     0.7111    0.0000    0.0000    0.0000    0.0000    0.0602
 AT.   3 O  X     0.0000    0.0791    0.0000    0.0000   -0.0823    0.0000
            Y     0.0000    0.0000    0.0791   -0.0823    0.0000    0.0000
            Z     0.7182    0.0000    0.0000    0.0000    0.0000   -0.0144
 AT.   4 O  X     0.0000    0.0791    0.0000    0.0000    0.0823    0.0000
            Y     0.0000    0.0000    0.0791    0.0823    0.0000    0.0000
            Z     0.7182    0.0000    0.0000    0.0000    0.0000    0.0144

 FREQ(CM**-1)    373.28    398.07    398.07    421.90    421.90    517.31

 AT.   1 ZN X     0.0000   -0.0218    0.0000    0.0000    0.0187    0.0000
            Y     0.0000    0.0000   -0.0218    0.0187    0.0000    0.0000
            Z    -0.0226    0.0000    0.0000    0.0000    0.0000    0.0051
 AT.   2 ZN X     0.0000   -0.0218    0.0000    0.0000   -0.0187    0.0000
            Y     0.0000    0.0000   -0.0218   -0.0187    0.0000    0.0000
            Z    -0.0226    0.0000    0.0000    0.0000    0.0000   -0.0051
 AT.   3 O  X     0.0000    0.0870    0.0000    0.0000    0.0868    0.0000
            Y     0.0000    0.0000    0.0870    0.0868    0.0000    0.0000
            Z     0.0896    0.0000    0.0000    0.0000    0.0000   -0.0847
 AT.   4 O  X     0.0000    0.0870    0.0000    0.0000   -0.0868    0.0000
            Y     0.0000    0.0000    0.0870   -0.0868    0.0000    0.0000
            Z     0.0896    0.0000    0.0000    0.0000    0.0000    0.0847

 *******************************************************************************

 VIBRATIONAL TEMPERATURES (K) [MODE NUMBER;IRREP]

 TO MODES
   125.0 [   4;E2 ]   125.0 [   5;E2 ]   368.6 [   6;B  ]   537.1 [   7;A  ]
   572.7 [   8;E1 ]   572.7 [   9;E1 ]   607.0 [  10;E2 ]   607.0 [  11;E2 ]
   744.3 [  12;B  ]

 *******************************************************************************

 HARMONIC VIBRATIONAL CONTRIBUTIONS TO THERMODYNAMIC FUNCTIONS AT GIVEN
 TEMPERATURE AND PRESSURE:

 (EL = ELECTRONIC ENERGY
  E0 = ZERO-POINT ENERGY
  ET = THERMAL CONTRIBUTION TO THE VIBRATIONAL ENERGY
  PV = PRESSURE * VOLUME
  TS = TEMPERATURE * ENTROPY)

                          AU/CELL             EV/CELL                 KJ/MOL
 EL            :   -3708.647198483103 -100917.420813259610    -9737051.84741792
 E0            :       0.006744361032       0.183523393840          17.70731740


 *******************************************************************************

 THERMODYNAMIC FUNCTIONS WITH VIBRATIONAL CONTRIBUTIONS

 AT (T =  298.15 K, P =   0.10132500E+00 MPA):

                          AU/CELL             EV/CELL                 KJ/MOL
 ET            :       0.003745729181       0.101926472844           9.83441058
 PV            :       0.000001142639       0.000031092791           0.00300000
 TS            :       0.006908595469       0.187992440073          18.13851485
 ET+PV-TS      :      -0.003161723650      -0.086034874438          -8.30110427
 EL+E0+ET+PV-TS:   -3708.643615845720 -100917.323324740210    -9737042.44120480

 OTHER THERMODYNAMIC FUNCTIONS:

                      mHARTREE/(CELL*K)     mEV/(CELL*K)              J/(MOL*K)
 ENTROPY       :       0.023171542745       0.630529733601          60.83687690
 HEAT CAPACITY :       0.022631484680       0.615834006551          59.41895465

 *******************************************************************************
 TTTTTTTTTTTTTTTTTTTTTTTTTTTTTT END         TELAPSE     3882.47 TCPU     3879.10
 EEEEEEEEEE TERMINATION  DATE 06 05 2016 TIME 18:33:08.1
