 +-------------------------------------------------+
 |                                                 |
 |      CCC   AA    SSS  TTTTT  EEEEE  PPPP        |
 |     C     A  A  S       T    E      P   P       |
 |     C     AAAA   SS     T    EEE    PPPP        |
 |     C     A  A     S    T    E      P           |
 |      CCC  A  A  SSS     T    EEEEE  P           |
 |                                                 |
 +-------------------------------------------------+
 |                                                 |
 | Welcome to Academic Release CASTEP version 16.1 |          
 | Ab Initio Total Energy Program                  |
 |                                                 |
 | Authors:                                        |
 | M. Segall, M. Probert, C. Pickard, P. Hasnip,   |
 | S. Clark, K. Refson, J. R. Yates, M. Payne      |
 |                                                 |
 | Contributors:                                   |
 | P. Lindan, P. Haynes, J. White, V. Milman,      |
 | N. Govind, M. Gibson, P. Tulip, V. Cocula,      |
 | B. Montanari, D. Quigley, M. Glover,            |
 | L. Bernasconi, A. Perlov, M. Plummer,           |
 | E. McNellis, J. Meyer, J. Gale, D. Jochym       |
 | J. Aarons, B. Walker, R. Gillen, D. Jones       |
 | T. Green, I. J. Bush, C. J. Armstrong,          |
 | E. J. Higgins, E. L. Brown, M. S. McFly         |
 |                                                 |
 | Copyright (c) 2000 - 2015                       |
 |                                                 |
 |     Distributed under the terms of an           |
 |     Agreement between the United Kingdom        |
 |     Car-Parrinello (UKCP) Consortium,           |
 |     Daresbury Laboratory and Accelrys, Inc.     |
 |                                                 |
 | Please cite                                     |
 |                                                 |
 |     "First principles methods using CASTEP"     |
 |                                                 |
 |         Zeitschrift fuer Kristallographie       |
 |           220(5-6) pp. 567-570 (2005)           |
 |                                                 |
 | S. J. Clark, M. D. Segall, C. J. Pickard,       |
 | P. J. Hasnip, M. J. Probert, K. Refson,         |
 | M. C. Payne                                     |
 |                                                 |
 |       in all publications arising from          |
 |              your use of CASTEP                 |
 |                                                 |
 +-------------------------------------------------+
 
 
 Compiled for linux_x86_64_ifort14 on Tue, 07 Jun 2016 11:27:02 +0100
 from code version b833c1ffcd7d+  Fri, 13 Jun 2014 17:24:31 +0100
 Compiler: Intel Fortran 14.0.3.174; Optimisation: intermediate
 MATHLIBS: Intel MKL(11.1.3) (LAPACK version 3.4.1)
 FFT Lib : default
 Fundamental constants values: CODATA 2010
 
 Run started: Sat, 11 Jun 2016 12:07:30 +0100

 ******************************* User Parameters *******************************
iprint                  : 2                # verbosity control (I)
task                    : phonon+efield    # type of calculation (S)
calculatestress         : T                # stress on/off (L)
calculatedensdiff       : F                # calculate density difference based on atoms (L)
pagewvfns               : 0                # page wavefunctions to disk (I)
optstrategy             : speed            # optimization strategy (S)
xcfunctional            : PBE              # exchange-correlation functional (S)
cutoffenergy            : 550.0000000 ev   # maximum energy of planewaves in basis set (P)
gridscale               : 2.0000000        # standard grid size (R)
finegridscale           : 3.0000000        # fine grid size (R)
finitebasiscorr         : none             # finite basis set correction (S)
charge                  : 0.0000000        # net charge (R)
spinpolarized           : F                # spin polarized (L)
nextrabands             : 0                # number of extra bands (I)
electronicminimizer     : CG               # electronic minimization method (S)
maxcgsteps              : 8                # max. number of conjugate gradient steps (I)
elecenergytol           : 0.0000000 ev     # total energy per atom convergence tolerance (P)
maxscfcycles            : 200              # maximum SCF cycles (I)
fixoccupancy            : T                # treat system as an insulator (L)
numdumpcycles           : 0                # frequency of wavefunction dumps (I)
mixingscheme            : Pulay            # density mixing scheme (S)
mixhistorylength        : 10               # number of densities in mixing scheme (I)
mixchargeamp            : 0.5000000        # charge density mixing amplitude (R)
mixchargegmax           : 1.5000000 1/ang  # maximum G-vector in charge mixing scheme (P)
popncalculate           : T                # population analysis on/off (L)
pdoscalculateweights    : F                # partial DOS analysis on/off (L)
geommethod              : BFGS             # geometry optimization method (S)
geommaxiter             : 100              # maximum number of geometry optimization iterations (I)
geomenergytol           : 0.0000010 ev     # geometry optimization energy convergence tolerance (P)
geomforcetol            : 0.0010000 ev/ang # geometry optimization force convergence tolerance (P)
geomdisptol             : 0.0002000 ang    # geometry optimization displacement convergence tolerance (P)
geomstresstol           : 0.0010000 gpa    # geometry optimization stress convergence tolerance (P)
phononmaxcycles         : 400              # maximum cycles in LR (I)
phononcalclotosplitting : T                # gamma-point phonon LO/TO correction (L)
calculateborncharges    : T                # calculate Born effective charges (L)
bornchargesumrule       : T                # enforce Born charge sum rule (L)
efieldmaxcycles         : 400              # maximum cycles in EFIELD (I)

 *******************************************************************************
  
 +-------------------------------------------------+
 |                                                 |
 |  D D D D    F F F F F  P P P P     T T T T T    |
 |  D       D  F          P       P       T        |
 |  D       D  F F F F    P P P P         T        |
 |  D       D  F          P               T        |
 |  D D D D    F          P               T        |
 |                                                 |
 +-------------------------------------------------+
 |                                                 |
 | Welcome to Castep Linear Response (DFPT)        |
 |                                                 |
 | Copyright (c) 2006 - 2015                       |
 |                                                 |
 | Please cite the following publications in all   |
 | work arising from your use of CASTEP LR.        |
 |                                                 |
 | K. Refson, S. J. Clark and P. R. Tulip          |
 | Variational density functional perturbation     |
 | theory for dielectrics and lattice dynamics     |
 | Phys. Rev. B 73(15), 155114 (2006)              |
 +-------------------------------------------------+
 
 
 Pseudo atomic calculation performed for O 2s2 2p4
 
 Converged in 46 iterations to a total energy of -421.5931 eV
 
 
 Pseudo atomic calculation performed for Na 2s2 2p6 3s1
 
 Converged in 31 iterations to a total energy of -1154.2432 eV
 
 
 Pseudo atomic calculation performed for S 3s2 3p4
 
 Converged in 40 iterations to a total energy of -276.6591 eV
 
Initialising basis set.
 
Standard grid dimensions:  40  45  48
Fine grid dimensions:      60  64  72
 
G-vector group:   1
 X-columns:
Process  Num. Cols.  Num. Fine Cols.  Num Weight. Cols.  Num Fine Weight. Cols.
   1         166              354                 33                      33
   2         167              355                 34                      34
   3         167              355                 34                      34
   4         167              356                 32                      32
   5         167              356                 32                      32
   6         166              356                 32                      32
   7         166              354                 32                      32
   8         166              353                 32                      32
   9         166              354                 32                      32
  10         166              354                 32                      32
  11         166              354                 32                      32
  12         165              354                 32                      32
  13         165              353                 32                      32
Total       2160             4608                421                     421
 Y-columns:
Process  Num. Cols.  Num. Fine Cols.  Num Weight. Cols.  Num Fine Weight. Cols.
   1         148              333                 77                     116
   2         148              333                 77                     116
   3         148              333                 77                     116
   4         148              333                 77                     116
   5         148              332                 77                     116
   6         148              332                 77                     115
   7         148              332                 77                     115
   8         148              332                 77                     115
   9         148              332                 77                     115
  10         147              332                 77                     115
  11         147              332                 77                     115
  12         147              332                 77                     115
  13         147              332                 76                     115
Total       1920             4320               1000                    1500
 Z-columns:
Process  Num. Cols.  Num. Fine Cols.  Num Weight. Cols.  Num Fine Weight. Cols.
   1         139              296                139                     296
   2         139              296                139                     296
   3         139              296                139                     296
   4         139              296                139                     296
   5         139              296                139                     296
   6         139              295                139                     295
   7         138              295                138                     295
   8         138              295                138                     295
   9         138              295                138                     295
  10         138              295                138                     295
  11         138              295                138                     295
  12         138              295                138                     295
  13         138              295                138                     295
Total       1800             3840               1800                    3840
 
G-vector group:   2
 X-columns:
Process  Num. Cols.  Num. Fine Cols.  Num Weight. Cols.  Num Fine Weight. Cols.
   1         166              354                 33                      33
   2         167              355                 34                      34
   3         167              355                 34                      34
   4         167              356                 32                      32
   5         167              356                 32                      32
   6         166              356                 32                      32
   7         166              354                 32                      32
   8         166              353                 32                      32
   9         166              354                 32                      32
  10         166              354                 32                      32
  11         166              354                 32                      32
  12         165              354                 32                      32
  13         165              353                 32                      32
Total       2160             4608                421                     421
 Y-columns:
Process  Num. Cols.  Num. Fine Cols.  Num Weight. Cols.  Num Fine Weight. Cols.
   1         148              333                 77                     116
   2         148              333                 77                     116
   3         148              333                 77                     116
   4         148              333                 77                     116
   5         148              332                 77                     116
   6         148              332                 77                     115
   7         148              332                 77                     115
   8         148              332                 77                     115
   9         148              332                 77                     115
  10         147              332                 77                     115
  11         147              332                 77                     115
  12         147              332                 77                     115
  13         147              332                 76                     115
Total       1920             4320               1000                    1500
 Z-columns:
Process  Num. Cols.  Num. Fine Cols.  Num Weight. Cols.  Num Fine Weight. Cols.
   1         139              296                139                     296
   2         139              296                139                     296
   3         139              296                139                     296
   4         139              296                139                     296
   5         139              296                139                     296
   6         139              295                139                     295
   7         138              295                138                     295
   8         138              295                138                     295
   9         138              295                138                     295
  10         138              295                138                     295
  11         138              295                138                     295
  12         138              295                138                     295
  13         138              295                138                     295
Total       1800             3840               1800                    3840
 
G-vector group:   3
 X-columns:
Process  Num. Cols.  Num. Fine Cols.  Num Weight. Cols.  Num Fine Weight. Cols.
   1         166              354                 33                      33
   2         167              355                 34                      34
   3         167              355                 34                      34
   4         167              356                 32                      32
   5         167              356                 32                      32
   6         166              356                 32                      32
   7         166              354                 32                      32
   8         166              353                 32                      32
   9         166              354                 32                      32
  10         166              354                 32                      32
  11         166              354                 32                      32
  12         165              354                 32                      32
  13         165              353                 32                      32
Total       2160             4608                421                     421
 Y-columns:
Process  Num. Cols.  Num. Fine Cols.  Num Weight. Cols.  Num Fine Weight. Cols.
   1         148              333                 77                     116
   2         148              333                 77                     116
   3         148              333                 77                     116
   4         148              333                 77                     116
   5         148              332                 77                     116
   6         148              332                 77                     115
   7         148              332                 77                     115
   8         148              332                 77                     115
   9         148              332                 77                     115
  10         147              332                 77                     115
  11         147              332                 77                     115
  12         147              332                 77                     115
  13         147              332                 76                     115
Total       1920             4320               1000                    1500
 Z-columns:
Process  Num. Cols.  Num. Fine Cols.  Num Weight. Cols.  Num Fine Weight. Cols.
   1         139              296                139                     296
   2         139              296                139                     296
   3         139              296                139                     296
   4         139              296                139                     296
   5         139              296                139                     296
   6         139              295                139                     295
   7         138              295                138                     295
   8         138              295                138                     295
   9         138              295                138                     295
  10         138              295                138                     295
  11         138              295                138                     295
  12         138              295                138                     295
  13         138              295                138                     295
Total       1800             3840               1800                    3840
 
Plane wave load balancing: max    364 min    323 average    341
True cut-off energy of basis :  20.212
 Calculation parallelised over 39 processes.
 Data is distributed by G-vector(13-way) and k-point(3-way)

 ************************************ Title ************************************
 

 ***************************** General Parameters ******************************
  
 output verbosity                               : verbose (2)
 write checkpoint data to                       : Na2SO42_phonon.check
 type of calculation                            : Phonon followed by E-field
 stress calculation                             : on
 density difference calculation                 : off
 electron localisation func (ELF) calculation   : off
 Hirshfeld analysis                             : off
 unlimited duration calculation
 timing information                             : on
 memory usage estimate                          : on
 write final potential to formatted file        : off
 write final density to formatted file          : off
 write BibTeX reference list                    : on
 write OTFG pseudopotential files               : on
 checkpoint writing                             : both castep_bin and check files
  
 output         length unit                     : A
 output           mass unit                     : amu
 output           time unit                     : ps
 output         charge unit                     : e
 output           spin unit                     : hbar/2
 output         energy unit                     : eV
 output          force unit                     : eV/A
 output       velocity unit                     : A/ps
 output       pressure unit                     : GPa
 output     inv_length unit                     : 1/A
 output      frequency unit                     : cm-1
 output force constant unit                     : eV/A**2
 output         volume unit                     : A**3
 output   IR intensity unit                     : (D/A)**2/amu
 output         dipole unit                     : D
 output         efield unit                     : eV/A/e
 output        entropy unit                     : J/mol/K
  
 wavefunctions paging                           : none
 random number generator seed                   : randomised (120730469)
 data distribution                              : optimal for this architecture
 optimization strategy                          : maximize speed(+++)

 *********************** Exchange-Correlation Parameters ***********************
  
 using functional                               : Perdew Burke Ernzerhof
 relativistic treatment                         : Koelling-Harmon
 DFT+D: Semi-empirical dispersion correction    : off

 ************************* Pseudopotential Parameters **************************
  
 pseudopotential representation                 : reciprocal space
 <beta|phi> representation                      : reciprocal space
 spin-orbit coupling                            : off

 **************************** Basis Set Parameters *****************************
  
 plane wave basis set cut-off                   :   550.0000   eV
 size of standard grid                          :     2.0000
 size of   fine   grid                          :     3.0000
 size of   fine   gmax                          :    36.0447   1/A
 largest prime factor in FFT                    :          5
 finite basis set correction                    : none

 **************************** Electronic Parameters ****************************
  
 number of  electrons                           :  78.00    
 net charge of system                           :  0.000    
 treating system as non-spin-polarized
 number of bands                                :         39

 ********************* Electronic Minimization Parameters **********************
  
 Method: Treating system as non-metallic,
         and number of  SD  steps               :          1
         and number of  CG  steps               :          8
  
 total energy / atom convergence tol.           : 0.1000E-11   eV
 max force / atom convergence tol.              : ignored
 convergence tolerance window                   :          3   cycles
 max. number of SCF cycles                      :        200
 periodic dipole correction                     : NONE

 *********************** Population Analysis Parameters ************************
  
 Population analysis with cutoff                :  3.000       A

 ****************************** Phonon Parameters ******************************
  
 phonon calculation method                      : linear response
 phonon convergence tolerance                   : 0.1000E-04   eV/A**2
 max. number of phonon cycles                   :        400
 max. number of phonon CG steps                 :          0
 convergence tolerance window                   :          2   cycles
 DFPT solver method                             : AllBands (Gonze variational method)
 preconditioning scheme                         : TPA     
 fine phonon calculation method                 : none
 LO/TO splitting term                           : included
 acoustic phonon sum rule                       : correct D(q) in recip-space
 Born effective charges                         : calculated
 Born charge sum rule                           : explicitly enforced
 Raman intensities                              : not calculated
 phonon k-points                                : use reduced set
 phonon DOS                                     : not calculated
 no timed backups

 ***************************** E-Field Parameters ******************************
  
 E-field convergence tolerance                  : 0.1000E-04   A**3
 DFPT solver method                             : AllBands (Gonze variational method)
 ionic contribution to permittivity             : included
 treating system as a crystal, 
 => ignoring 3 lowest modes when calculating ionic  contribution to permittivity
 calculation with frequency spacing             : 0.4556E-05   cm-1
 Q-factor for lineshape broadening              :    50.0000
 max. number of E-field cycles                  :        400
 max. number of E-field CG steps                :          0
 convergence tolerance window                   :          2   cycles
 band convergence tolerance                     : 0.1000E-08   eV

 *******************************************************************************
  
 
                           -------------------------------
                                      Unit Cell
                           -------------------------------
        Real Lattice(A)                      Reciprocal Lattice(1/A)
   4.7800000   0.0000000   0.0000000        1.3144739   0.1711403   0.3644134
  -0.7197723   5.5283409   0.0000000        0.0000000   1.1365409   0.2860349
  -1.4050606  -1.4464823   5.7475016        0.0000000   0.0000000   1.0932029
 
                       Lattice parameters(A)       Cell Angles
                    a =    4.780000          alpha =  101.871000
                    b =    5.575000          beta  =  103.337000
                    c =    6.091000          gamma =   97.418000
 
                       Current cell volume =  151.880428       A**3
 
                           -------------------------------
                                     Cell Contents
                           -------------------------------
                         Total number of ions in cell =   12
                      Total number of species in cell =    3
                        Max number of any one species =    8
 
            xxxxxxxxxxxxxxxxxxxxxxxxxxxxxxxxxxxxxxxxxxxxxxxxxxxxxxxxxxxx
            x  Element    Atom        Fractional coordinates of atoms  x
            x            Number           u          v          w      x
            x----------------------------------------------------------x
            x  O            1         0.553874   0.019031   0.440862   x 
            x  O            2         0.446126   0.980969   0.559138   x 
            x  O            3         0.758890   0.907386   0.139814   x 
            x  O            4         0.241110   0.092614   0.860186   x 
            x  O            5         0.321294   0.656057   0.140675   x 
            x  O            6         0.678706   0.343943   0.859325   x 
            x  O            7         0.756277   0.649736   0.403633   x 
            x  O            8         0.243723   0.350264   0.596367   x 
            x  Na           1         0.017700   0.317755   0.204064   x 
            x  Na           2         0.982300   0.682245   0.795936   x 
            x  S            1         0.603230   0.785406   0.263766   x 
            x  S            2         0.396770   0.214594   0.736234   x 
            xxxxxxxxxxxxxxxxxxxxxxxxxxxxxxxxxxxxxxxxxxxxxxxxxxxxxxxxxxxx
 
 
                         No user defined ionic velocities
 
                           -------------------------------
                                   Details of Species
                           -------------------------------
 
                               Mass of species in AMU
                                    O   15.9994000
                                    Na   22.9897700
                                    S   32.0660000
 
                          Electric Quadrupole Moment (Barn)
                                    O   -0.0255800 Isotope 17
                                    Na    0.1040000 Isotope 23
                                    S   -0.0678000 Isotope 33
 
                          Files used for pseudopotentials:
                                    O /home/software/PseudoPotentials/Castep/O_00.recpot
                                    Na /home/software/PseudoPotentials/Castep/Na_00.recpot
                                    S /home/software/PseudoPotentials/Castep/S_00.recpot
 
                           -------------------------------
                              k-Points For BZ Sampling
                           -------------------------------
                       MP grid size for SCF calculation is  7  6  5
                            with an offset of   0.000  0.000  0.000
                       Number of kpoints used =           105
 
             +++++++++++++++++++++++++++++++++++++++++++++++++++++++
             +  Number       Fractional coordinates        Weight  +
             +-----------------------------------------------------+
             +     1  -0.428571  -0.416667  -0.400000   0.0095238  +
             +     2  -0.428571  -0.416667  -0.200000   0.0095238  +
             +     3  -0.428571  -0.416667   0.200000   0.0095238  +
             +     4  -0.428571  -0.250000  -0.400000   0.0095238  +
             +     5  -0.428571  -0.250000  -0.200000   0.0095238  +
             +     6  -0.428571  -0.250000   0.000000   0.0095238  +
             +     7  -0.428571   0.083333  -0.400000   0.0095238  +
             +     8  -0.428571   0.083333  -0.200000   0.0095238  +
             +     9  -0.428571   0.083333   0.000000   0.0095238  +
             +    10  -0.428571   0.083333   0.200000   0.0095238  +
             +    11  -0.428571   0.250000  -0.400000   0.0095238  +
             +    12  -0.428571   0.250000   0.200000   0.0095238  +
             +    13  -0.428571   0.416667  -0.400000   0.0095238  +
             +    14  -0.428571   0.416667  -0.200000   0.0095238  +
             +    15  -0.428571   0.416667   0.200000   0.0095238  +
             +    16  -0.285714  -0.416667  -0.400000   0.0095238  +
             +    17  -0.285714  -0.416667  -0.200000   0.0095238  +
             +    18  -0.285714  -0.416667   0.000000   0.0095238  +
             +    19  -0.285714  -0.416667   0.200000   0.0095238  +
             +    20  -0.285714  -0.416667   0.400000   0.0095238  +
             +    21  -0.285714  -0.250000  -0.400000   0.0095238  +
             +    22  -0.285714  -0.250000   0.000000   0.0095238  +
             +    23  -0.285714  -0.250000   0.200000   0.0095238  +
             +    24  -0.285714  -0.250000   0.400000   0.0095238  +
             +    25  -0.285714  -0.083333  -0.200000   0.0095238  +
             +    26  -0.285714   0.083333  -0.400000   0.0095238  +
             +    27  -0.285714   0.250000  -0.400000   0.0095238  +
             +    28  -0.285714   0.416667  -0.400000   0.0095238  +
             +    29  -0.285714   0.416667  -0.200000   0.0095238  +
             +    30  -0.285714   0.416667   0.400000   0.0095238  +
             +    31  -0.142857  -0.416667   0.200000   0.0095238  +
             +    32  -0.142857  -0.416667   0.400000   0.0095238  +
             +    33  -0.142857  -0.250000  -0.400000   0.0095238  +
             +    34  -0.142857  -0.250000  -0.200000   0.0095238  +
             +    35  -0.142857  -0.250000   0.000000   0.0095238  +
             +    36  -0.142857  -0.250000   0.200000   0.0095238  +
             +    37  -0.142857  -0.250000   0.400000   0.0095238  +
             +    38  -0.142857   0.250000   0.200000   0.0095238  +
             +    39  -0.142857   0.250000   0.400000   0.0095238  +
             +    40  -0.142857   0.416667  -0.400000   0.0095238  +
             +    41  -0.142857   0.416667  -0.200000   0.0095238  +
             +    42  -0.142857   0.416667   0.000000   0.0095238  +
             +    43  -0.142857   0.416667   0.200000   0.0095238  +
             +    44   0.000000  -0.416667  -0.400000   0.0095238  +
             +    45   0.000000  -0.416667  -0.200000   0.0095238  +
             +    46   0.000000  -0.416667   0.000000   0.0095238  +
             +    47   0.000000  -0.416667   0.200000   0.0095238  +
             +    48   0.000000  -0.416667   0.400000   0.0095238  +
             +    49   0.000000  -0.250000  -0.400000   0.0095238  +
             +    50   0.000000  -0.250000  -0.200000   0.0095238  +
             +    51   0.000000  -0.250000   0.000000   0.0095238  +
             +    52   0.000000  -0.250000   0.200000   0.0095238  +
             +    53   0.000000  -0.250000   0.400000   0.0095238  +
             +    54   0.000000  -0.083333  -0.400000   0.0095238  +
             +    55   0.000000  -0.083333  -0.200000   0.0095238  +
             +    56   0.000000  -0.083333   0.000000   0.0095238  +
             +    57   0.000000  -0.083333   0.200000   0.0095238  +
             +    58   0.000000  -0.083333   0.400000   0.0095238  +
             +    59   0.142857  -0.416667  -0.400000   0.0095238  +
             +    60   0.142857  -0.250000   0.000000   0.0095238  +
             +    61   0.142857  -0.250000   0.200000   0.0095238  +
             +    62   0.142857  -0.250000   0.400000   0.0095238  +
             +    63   0.142857  -0.083333  -0.400000   0.0095238  +
             +    64   0.142857  -0.083333  -0.200000   0.0095238  +
             +    65   0.142857  -0.083333   0.000000   0.0095238  +
             +    66   0.142857  -0.083333   0.200000   0.0095238  +
             +    67   0.142857  -0.083333   0.400000   0.0095238  +
             +    68   0.142857   0.083333  -0.400000   0.0095238  +
             +    69   0.142857   0.083333  -0.200000   0.0095238  +
             +    70   0.142857   0.083333   0.000000   0.0095238  +
             +    71   0.142857   0.083333   0.200000   0.0095238  +
             +    72   0.142857   0.083333   0.400000   0.0095238  +
             +    73   0.142857   0.416667   0.000000   0.0095238  +
             +    74   0.142857   0.416667   0.200000   0.0095238  +
             +    75   0.142857   0.416667   0.400000   0.0095238  +
             +    76   0.285714  -0.416667  -0.200000   0.0095238  +
             +    77   0.285714  -0.416667   0.000000   0.0095238  +
             +    78   0.285714  -0.250000  -0.400000   0.0095238  +
             +    79   0.285714  -0.250000  -0.200000   0.0095238  +
             +    80   0.285714  -0.250000   0.000000   0.0095238  +
             +    81   0.285714  -0.250000   0.200000   0.0095238  +
             +    82   0.285714  -0.083333  -0.400000   0.0095238  +
             +    83   0.285714  -0.083333  -0.200000   0.0095238  +
             +    84   0.285714  -0.083333   0.000000   0.0095238  +
             +    85   0.285714  -0.083333   0.200000   0.0095238  +
             +    86   0.285714   0.083333  -0.400000   0.0095238  +
             +    87   0.285714   0.083333  -0.200000   0.0095238  +
             +    88   0.285714   0.083333   0.000000   0.0095238  +
             +    89   0.285714   0.083333   0.400000   0.0095238  +
             +    90   0.285714   0.250000   0.200000   0.0095238  +
             +    91   0.428571  -0.416667  -0.400000   0.0095238  +
             +    92   0.428571  -0.416667   0.000000   0.0095238  +
             +    93   0.428571  -0.250000  -0.400000   0.0095238  +
             +    94   0.428571  -0.250000   0.000000   0.0095238  +
             +    95   0.428571  -0.250000   0.200000   0.0095238  +
             +    96   0.428571  -0.083333  -0.400000   0.0095238  +
             +    97   0.428571   0.083333  -0.400000   0.0095238  +
             +    98   0.428571   0.083333  -0.200000   0.0095238  +
             +    99   0.428571   0.083333   0.000000   0.0095238  +
             +   100   0.428571   0.083333   0.200000   0.0095238  +
             +   101   0.428571   0.083333   0.400000   0.0095238  +
             +   102   0.428571   0.250000  -0.400000   0.0095238  +
             +   103   0.428571   0.250000  -0.200000   0.0095238  +
             +   104   0.428571   0.416667  -0.400000   0.0095238  +
             +   105   0.428571   0.416667   0.000000   0.0095238  +
             +++++++++++++++++++++++++++++++++++++++++++++++++++++++
 
                           -------------------------------
                               Symmetry and Constraints
                           -------------------------------
 
                      Maximum deviation from symmetry = 0.229448E-14     ANG
 
                      Number of symmetry operations   =           2
                      Number of ionic constraints     =           3
                      Point group of crystal =     2: Ci, -1, -1
                      Space group of crystal =     2: P-1, -P 1
 
                    1 rotation    
                 (   1.00000000000   0.00000000000   0.00000000000 )
                 (   0.00000000000   1.00000000000   0.00000000000 )
                 (   0.00000000000   0.00000000000   1.00000000000 )
                    1 displacement
                 (   0.00000000000   0.00000000000   0.00000000000 )
                      symmetry related atoms: 
             O:    1    2    3    4    5    6    7    8
             Na:    1    2
             S:    1    2
 
                    2 rotation    
                 (  -1.00000000000   0.00000000000   0.00000000000 )
                 (   0.00000000000  -1.00000000000   0.00000000000 )
                 (   0.00000000000   0.00000000000  -1.00000000000 )
                    2 displacement
                 (   0.00000000000   0.00000000000   0.00000000000 )
                      symmetry related atoms: 
             O:    2    1    4    3    6    5    8    7
             Na:    2    1
             S:    2    1
 
 
                         Centre of mass is constrained
 
            xxxxxxxxxxxxxxxxxxxxxxxxxxxxxxxxxxxxxxxxxxxxxxxxxxxxxxxxx....
            x  Species  atom   co-ordinate  constraints.....         
            x--------------------------------------------------------....
            x O            1       x        29165.1220      0.0000      0.0000
            x O            1       y            0.0000  29165.1220      0.0000
            x O            1       z            0.0000      0.0000  29165.1220
            x O            2       x        29165.1220      0.0000      0.0000
            x O            2       y            0.0000  29165.1220      0.0000
            x O            2       z            0.0000      0.0000  29165.1220
            x O            3       x        29165.1220      0.0000      0.0000
            x O            3       y            0.0000  29165.1220      0.0000
            x O            3       z            0.0000      0.0000  29165.1220
            x O            4       x        29165.1220      0.0000      0.0000
            x O            4       y            0.0000  29165.1220      0.0000
            x O            4       z            0.0000      0.0000  29165.1220
            x O            5       x        29165.1220      0.0000      0.0000
            x O            5       y            0.0000  29165.1220      0.0000
            x O            5       z            0.0000      0.0000  29165.1220
            x O            6       x        29165.1220      0.0000      0.0000
            x O            6       y            0.0000  29165.1220      0.0000
            x O            6       z            0.0000      0.0000  29165.1220
            x O            7       x        29165.1220      0.0000      0.0000
            x O            7       y            0.0000  29165.1220      0.0000
            x O            7       z            0.0000      0.0000  29165.1220
            x O            8       x        29165.1220      0.0000      0.0000
            x O            8       y            0.0000  29165.1220      0.0000
            x O            8       z            0.0000      0.0000  29165.1220
            x Na           1       x        41907.7870      0.0000      0.0000
            x Na           1       y            0.0000  41907.7870      0.0000
            x Na           1       z            0.0000      0.0000  41907.7870
            x Na           2       x        41907.7870      0.0000      0.0000
            x Na           2       y            0.0000  41907.7870      0.0000
            x Na           2       z            0.0000      0.0000  41907.7870
            x S            1       x        58452.7422      0.0000      0.0000
            x S            1       y            0.0000  58452.7422      0.0000
            x S            1       z            0.0000      0.0000  58452.7422
            x S            2       x        58452.7422      0.0000      0.0000
            x S            2       y            0.0000  58452.7422      0.0000
            x S            2       z            0.0000      0.0000  58452.7422
            xxxxxxxxxxxxxxxxxxxxxxxxxxxxxxxxxxxxxxxxxxxxxxxxxxxxxxxxx....
 
                         Number of cell constraints= 6
                         Cell constraints are:  0 0 0 0 0 0
 
                         External pressure/stress (GPa)
                          0.00000   0.00000   0.00000
                                    0.00000   0.00000
                                              0.00000
  
+---------------- MEMORY AND SCRATCH DISK ESTIMATES PER PROCESS --------------+
|                                                     Memory          Disk    |
| Baseline code, static data and system overhead      454.0 MB         0.0 MB |
| BLAS internal memory storage                          0.0 MB         0.0 MB |
| Model and support data                               20.0 MB         0.0 MB |
| Electronic energy minimisation requirements          42.1 MB         0.0 MB |
| Force calculation requirements                        2.8 MB         0.0 MB |
| Stress calculation requirements                       3.5 MB         0.0 MB |
|                                               ----------------------------- |
| Approx. total storage required per process          516.1 MB         0.0 MB |
|                                                                             |
| Requirements will fluctuate during execution and may exceed these estimates |
+-----------------------------------------------------------------------------+
 
Init
Total energy                     =       -32.54131159228673909 eV
------------------------------------------------------------------------ <-- SCF
SCF loop      Energy                           Energy gain       Timer   <-- SCF
                                               per atom          (sec)   <-- SCF
------------------------------------------------------------------------ <-- SCF
Initial  -3.25413116E+001                                         11.59  <-- SCF
+------------------- WAVEFUNCTION LINE MINIMISATION --------------------+<- line
| Initial energy = -3.254131E+001 eV; initial dE/dstep = -8.644E+003 eV |<- line
|                                                                       |<- line
|            1st step    2nd step    3rd step    4th step    5th step   |<- line
+--------+--------------------------------------------------------------+<- line
| step   |  1.500E+00*  1.088E+00  unnecessary unnecessary unnecessary  |<- line
| gain   |  4.031E+03*  4.022E+03  unnecessary unnecessary unnecessary  |<- line
+--------+--------------------------------------------------------------+<- line
 * indicates the final, accepted state (should have the lowest energy)          
 
+------------------- WAVEFUNCTION LINE MINIMISATION --------------------+<- line
| Initial energy = -4.063113E+003 eV; initial dE/dstep = -4.143E+003 eV |<- line
|                                                                       |<- line
|            1st step    2nd step    3rd step    4th step    5th step   |<- line
+--------+--------------------------------------------------------------+<- line
| step   |  1.500E+00   8.880E-01* unnecessary unnecessary unnecessary  |<- line
| gain   |  9.660E+02   1.288E+03* unnecessary unnecessary unnecessary  |<- line
+--------+--------------------------------------------------------------+<- line
 * indicates the final, accepted state (should have the lowest energy)          
 
+------------------- WAVEFUNCTION LINE MINIMISATION --------------------+<- line
| Initial energy = -5.351403E+003 eV; initial dE/dstep = -1.785E+003 eV |<- line
|                                                                       |<- line
|            1st step    2nd step    3rd step    4th step    5th step   |<- line
+--------+--------------------------------------------------------------+<- line
| step   |  1.500E+00   7.864E-01* unnecessary unnecessary unnecessary  |<- line
| gain   |  1.240E+02   5.355E+02* unnecessary unnecessary unnecessary  |<- line
+--------+--------------------------------------------------------------+<- line
 * indicates the final, accepted state (should have the lowest energy)          
 
+------------------- WAVEFUNCTION LINE MINIMISATION --------------------+<- line
| Initial energy = -5.886878E+003 eV; initial dE/dstep = -6.099E+002 eV |<- line
|                                                                       |<- line
|            1st step    2nd step    3rd step    4th step    5th step   |<- line
+--------+--------------------------------------------------------------+<- line
| step   |  1.500E+00   7.972E-01* unnecessary unnecessary unnecessary  |<- line
| gain   |  5.415E+01   2.268E+02* unnecessary unnecessary unnecessary  |<- line
+--------+--------------------------------------------------------------+<- line
 * indicates the final, accepted state (should have the lowest energy)          
 
+------------------- WAVEFUNCTION LINE MINIMISATION --------------------+<- line
| Initial energy = -6.113688E+003 eV; initial dE/dstep = -2.257E+002 eV |<- line
|                                                                       |<- line
|            1st step    2nd step    3rd step    4th step    5th step   |<- line
+--------+--------------------------------------------------------------+<- line
| step   |  1.500E+00   7.962E-01* unnecessary unnecessary unnecessary  |<- line
| gain   |  1.965E+01   8.950E+01* unnecessary unnecessary unnecessary  |<- line
+--------+--------------------------------------------------------------+<- line
 * indicates the final, accepted state (should have the lowest energy)          
 
+------------------- WAVEFUNCTION LINE MINIMISATION --------------------+<- line
| Initial energy = -6.203189E+003 eV; initial dE/dstep = -9.611E+001 eV |<- line
|                                                                       |<- line
|            1st step    2nd step    3rd step    4th step    5th step   |<- line
+--------+--------------------------------------------------------------+<- line
| step   |  1.500E+00   8.736E-01* unnecessary unnecessary unnecessary  |<- line
| gain   |  2.039E+01   4.209E+01* unnecessary unnecessary unnecessary  |<- line
+--------+--------------------------------------------------------------+<- line
 * indicates the final, accepted state (should have the lowest energy)          
 
+------------------- WAVEFUNCTION LINE MINIMISATION --------------------+<- line
| Initial energy = -6.245275E+003 eV; initial dE/dstep = -5.415E+001 eV |<- line
|                                                                       |<- line
|            1st step    2nd step    3rd step    4th step    5th step   |<- line
+--------+--------------------------------------------------------------+<- line
| step   |  1.500E+00   8.861E-01* unnecessary unnecessary unnecessary  |<- line
| gain   |  1.248E+01   2.411E+01* unnecessary unnecessary unnecessary  |<- line
+--------+--------------------------------------------------------------+<- line
 * indicates the final, accepted state (should have the lowest energy)          
 
+------------------- WAVEFUNCTION LINE MINIMISATION --------------------+<- line
| Initial energy = -6.269382E+003 eV; initial dE/dstep = -3.348E+001 eV |<- line
|                                                                       |<- line
|            1st step    2nd step    3rd step    4th step    5th step   |<- line
+--------+--------------------------------------------------------------+<- line
| step   |  1.500E+00   8.692E-01* unnecessary unnecessary unnecessary  |<- line
| gain   |  6.885E+00   1.466E+01* unnecessary unnecessary unnecessary  |<- line
+--------+--------------------------------------------------------------+<- line
 * indicates the final, accepted state (should have the lowest energy)          
 
+------------------- WAVEFUNCTION LINE MINIMISATION --------------------+<- line
| Initial energy = -6.284044E+003 eV; initial dE/dstep = -2.196E+001 eV |<- line
|                                                                       |<- line
|            1st step    2nd step    3rd step    4th step    5th step   |<- line
+--------+--------------------------------------------------------------+<- line
| step   |  1.500E+00   8.376E-01* unnecessary unnecessary unnecessary  |<- line
| gain   |  3.446E+00   9.281E+00* unnecessary unnecessary unnecessary  |<- line
+--------+--------------------------------------------------------------+<- line
 * indicates the final, accepted state (should have the lowest energy)          
 
      1  -6.29332493E+003                    5.21731968E+002      84.73  <-- SCF
+------------------- WAVEFUNCTION LINE MINIMISATION --------------------+<- line
| Initial energy = -6.293325E+003 eV; initial dE/dstep = -1.329E+001 eV |<- line
|                                                                       |<- line
|            1st step    2nd step    3rd step    4th step    5th step   |<- line
+--------+--------------------------------------------------------------+<- line
| step   |  1.500E+00   1.025E+00* unnecessary unnecessary unnecessary  |<- line
| gain   |  5.353E+00   6.817E+00* unnecessary unnecessary unnecessary  |<- line
+--------+--------------------------------------------------------------+<- line
 * indicates the final, accepted state (should have the lowest energy)          
 
+------------------- WAVEFUNCTION LINE MINIMISATION --------------------+<- line
| Initial energy = -6.300142E+003 eV; initial dE/dstep = -6.553E+000 eV |<- line
|                                                                       |<- line
|            1st step    2nd step    3rd step    4th step    5th step   |<- line
+--------+--------------------------------------------------------------+<- line
| step   |  1.500E+00   1.445E+00* unnecessary unnecessary unnecessary  |<- line
| gain   |  4.727E+00   4.739E+00* unnecessary unnecessary unnecessary  |<- line
+--------+--------------------------------------------------------------+<- line
 * indicates the final, accepted state (should have the lowest energy)          
 
+------------------- WAVEFUNCTION LINE MINIMISATION --------------------+<- line
| Initial energy = -6.304881E+003 eV; initial dE/dstep = -6.791E+000 eV |<- line
|                                                                       |<- line
|            1st step    2nd step    3rd step    4th step    5th step   |<- line
+--------+--------------------------------------------------------------+<- line
| step   |  1.500E+00   1.030E+00* unnecessary unnecessary unnecessary  |<- line
| gain   |  2.770E+00   3.542E+00* unnecessary unnecessary unnecessary  |<- line
+--------+--------------------------------------------------------------+<- line
 * indicates the final, accepted state (should have the lowest energy)          
 
+------------------- WAVEFUNCTION LINE MINIMISATION --------------------+<- line
| Initial energy = -6.308423E+003 eV; initial dE/dstep = -4.356E+000 eV |<- line
|                                                                       |<- line
|            1st step    2nd step    3rd step    4th step    5th step   |<- line
+--------+--------------------------------------------------------------+<- line
| step   |  1.500E+00   1.153E+00* unnecessary unnecessary unnecessary  |<- line
| gain   |  2.283E+00   2.529E+00* unnecessary unnecessary unnecessary  |<- line
+--------+--------------------------------------------------------------+<- line
 * indicates the final, accepted state (should have the lowest energy)          
 
+------------------- WAVEFUNCTION LINE MINIMISATION --------------------+<- line
| Initial energy = -6.310952E+003 eV; initial dE/dstep = -2.907E+000 eV |<- line
|                                                                       |<- line
|            1st step    2nd step    3rd step    4th step    5th step   |<- line
+--------+--------------------------------------------------------------+<- line
| step   |  1.500E+00   1.105E+00* unnecessary unnecessary unnecessary  |<- line
| gain   |  1.400E+00   1.614E+00* unnecessary unnecessary unnecessary  |<- line
+--------+--------------------------------------------------------------+<- line
 * indicates the final, accepted state (should have the lowest energy)          
 
+------------------- WAVEFUNCTION LINE MINIMISATION --------------------+<- line
| Initial energy = -6.312566E+003 eV; initial dE/dstep = -1.897E+000 eV |<- line
|                                                                       |<- line
|            1st step    2nd step    3rd step    4th step    5th step   |<- line
+--------+--------------------------------------------------------------+<- line
| step   |  1.500E+00   9.829E-01* unnecessary unnecessary unnecessary  |<- line
| gain   |  6.741E-01   9.373E-01* unnecessary unnecessary unnecessary  |<- line
+--------+--------------------------------------------------------------+<- line
 * indicates the final, accepted state (should have the lowest energy)          
 
+------------------- WAVEFUNCTION LINE MINIMISATION --------------------+<- line
| Initial energy = -6.313503E+003 eV; initial dE/dstep = -1.252E+000 eV |<- line
|                                                                       |<- line
|            1st step    2nd step    3rd step    4th step    5th step   |<- line
+--------+--------------------------------------------------------------+<- line
| step   |  1.500E+00   1.039E+00* unnecessary unnecessary unnecessary  |<- line
| gain   |  5.223E-01   6.530E-01* unnecessary unnecessary unnecessary  |<- line
+--------+--------------------------------------------------------------+<- line
 * indicates the final, accepted state (should have the lowest energy)          
 
+------------------- WAVEFUNCTION LINE MINIMISATION --------------------+<- line
| Initial energy = -6.314156E+003 eV; initial dE/dstep = -8.302E-001 eV |<- line
|                                                                       |<- line
|            1st step    2nd step    3rd step    4th step    5th step   |<- line
+--------+--------------------------------------------------------------+<- line
| step   |  1.500E+00   1.015E+00* unnecessary unnecessary unnecessary  |<- line
| gain   |  3.254E-01   4.223E-01* unnecessary unnecessary unnecessary  |<- line
+--------+--------------------------------------------------------------+<- line
 * indicates the final, accepted state (should have the lowest energy)          
 
+------------------- WAVEFUNCTION LINE MINIMISATION --------------------+<- line
| Initial energy = -6.314579E+003 eV; initial dE/dstep = -5.704E-001 eV |<- line
|                                                                       |<- line
|            1st step    2nd step    3rd step    4th step    5th step   |<- line
+--------+--------------------------------------------------------------+<- line
| step   |  1.500E+00   9.531E-01* unnecessary unnecessary unnecessary  |<- line
| gain   |  1.823E-01   2.722E-01* unnecessary unnecessary unnecessary  |<- line
+--------+--------------------------------------------------------------+<- line
 * indicates the final, accepted state (should have the lowest energy)          
 
      2  -6.31485099E+003                    1.79383837E+000     155.91  <-- SCF
+------------------- WAVEFUNCTION LINE MINIMISATION --------------------+<- line
| Initial energy = -6.314851E+003 eV; initial dE/dstep = -3.553E-001 eV |<- line
|                                                                       |<- line
|            1st step    2nd step    3rd step    4th step    5th step   |<- line
+--------+--------------------------------------------------------------+<- line
| step   |  1.500E+00   1.030E+00* unnecessary unnecessary unnecessary  |<- line
| gain   |  1.449E-01   1.830E-01* unnecessary unnecessary unnecessary  |<- line
+--------+--------------------------------------------------------------+<- line
 * indicates the final, accepted state (should have the lowest energy)          
 
+------------------- WAVEFUNCTION LINE MINIMISATION --------------------+<- line
| Initial energy = -6.315034E+003 eV; initial dE/dstep = -2.765E-001 eV |<- line
|                                                                       |<- line
|            1st step    2nd step    3rd step    4th step    5th step   |<- line
+--------+--------------------------------------------------------------+<- line
| step   |  1.500E+00   1.108E+00* unnecessary unnecessary unnecessary  |<- line
| gain   |  1.339E-01   1.532E-01* unnecessary unnecessary unnecessary  |<- line
+--------+--------------------------------------------------------------+<- line
 * indicates the final, accepted state (should have the lowest energy)          
 
+------------------- WAVEFUNCTION LINE MINIMISATION --------------------+<- line
| Initial energy = -6.315187E+003 eV; initial dE/dstep = -1.480E-001 eV |<- line
|                                                                       |<- line
|            1st step    2nd step    3rd step    4th step    5th step   |<- line
+--------+--------------------------------------------------------------+<- line
| step   |  1.500E+00   1.044E+00* unnecessary unnecessary unnecessary  |<- line
| gain   |  6.248E-02   7.731E-02* unnecessary unnecessary unnecessary  |<- line
+--------+--------------------------------------------------------------+<- line
 * indicates the final, accepted state (should have the lowest energy)          
 
+------------------- WAVEFUNCTION LINE MINIMISATION --------------------+<- line
| Initial energy = -6.315265E+003 eV; initial dE/dstep = -7.217E-002 eV |<- line
|                                                                       |<- line
|            1st step    2nd step    3rd step    4th step    5th step   |<- line
+--------+--------------------------------------------------------------+<- line
| step   |  1.500E+00   1.128E+00* unnecessary unnecessary unnecessary  |<- line
| gain   |  3.626E-02   4.073E-02* unnecessary unnecessary unnecessary  |<- line
+--------+--------------------------------------------------------------+<- line
 * indicates the final, accepted state (should have the lowest energy)          
 
+------------------- WAVEFUNCTION LINE MINIMISATION --------------------+<- line
| Initial energy = -6.315305E+003 eV; initial dE/dstep = -4.289E-002 eV |<- line
|                                                                       |<- line
|            1st step    2nd step    3rd step    4th step    5th step   |<- line
+--------+--------------------------------------------------------------+<- line
| step   |  1.500E+00   1.094E+00* unnecessary unnecessary unnecessary  |<- line
| gain   |  2.024E-02   2.350E-02* unnecessary unnecessary unnecessary  |<- line
+--------+--------------------------------------------------------------+<- line
 * indicates the final, accepted state (should have the lowest energy)          
 
+------------------- WAVEFUNCTION LINE MINIMISATION --------------------+<- line
| Initial energy = -6.315329E+003 eV; initial dE/dstep = -2.787E-002 eV |<- line
|                                                                       |<- line
|            1st step    2nd step    3rd step    4th step    5th step   |<- line
+--------+--------------------------------------------------------------+<- line
| step   |  1.500E+00   1.071E+00* unnecessary unnecessary unnecessary  |<- line
| gain   |  1.252E-02   1.496E-02* unnecessary unnecessary unnecessary  |<- line
+--------+--------------------------------------------------------------+<- line
 * indicates the final, accepted state (should have the lowest energy)          
 
+------------------- WAVEFUNCTION LINE MINIMISATION --------------------+<- line
| Initial energy = -6.315344E+003 eV; initial dE/dstep = -2.007E-002 eV |<- line
|                                                                       |<- line
|            1st step    2nd step    3rd step    4th step    5th step   |<- line
+--------+--------------------------------------------------------------+<- line
| step   |  1.500E+00   1.215E+00* unnecessary unnecessary unnecessary  |<- line
| gain   |  1.152E-02   1.222E-02* unnecessary unnecessary unnecessary  |<- line
+--------+--------------------------------------------------------------+<- line
 * indicates the final, accepted state (should have the lowest energy)          
 
+------------------- WAVEFUNCTION LINE MINIMISATION --------------------+<- line
| Initial energy = -6.315356E+003 eV; initial dE/dstep = -1.361E-002 eV |<- line
|                                                                       |<- line
|            1st step    2nd step    3rd step    4th step    5th step   |<- line
+--------+--------------------------------------------------------------+<- line
| step   |  1.500E+00   1.202E+00* unnecessary unnecessary unnecessary  |<- line
| gain   |  7.675E-03   8.203E-03* unnecessary unnecessary unnecessary  |<- line
+--------+--------------------------------------------------------------+<- line
 * indicates the final, accepted state (should have the lowest energy)          
 
+------------------- WAVEFUNCTION LINE MINIMISATION --------------------+<- line
| Initial energy = -6.315364E+003 eV; initial dE/dstep = -9.039E-003 eV |<- line
|                                                                       |<- line
|            1st step    2nd step    3rd step    4th step    5th step   |<- line
+--------+--------------------------------------------------------------+<- line
| step   |  1.500E+00   1.242E+00* unnecessary unnecessary unnecessary  |<- line
| gain   |  5.370E-03   5.622E-03* unnecessary unnecessary unnecessary  |<- line
+--------+--------------------------------------------------------------+<- line
 * indicates the final, accepted state (should have the lowest energy)          
 
      3  -6.31536976E+003                    4.32309401E-002     228.84  <-- SCF
+------------------- WAVEFUNCTION LINE MINIMISATION --------------------+<- line
| Initial energy = -6.315370E+003 eV; initial dE/dstep = -7.962E-003 eV |<- line
|                                                                       |<- line
|            1st step    2nd step    3rd step    4th step    5th step   |<- line
+--------+--------------------------------------------------------------+<- line
| step   |  1.500E+00   6.711E-01* unnecessary unnecessary unnecessary  |<- line
| gain   | -1.404E-03   2.672E-03* unnecessary unnecessary unnecessary  |<- line
+--------+--------------------------------------------------------------+<- line
 * indicates the final, accepted state (should have the lowest energy)          
 
+------------------- WAVEFUNCTION LINE MINIMISATION --------------------+<- line
| Initial energy = -6.315372E+003 eV; initial dE/dstep = -3.328E-003 eV |<- line
|                                                                       |<- line
|            1st step    2nd step    3rd step    4th step    5th step   |<- line
+--------+--------------------------------------------------------------+<- line
| step   |  1.500E+00   1.352E+00* unnecessary unnecessary unnecessary  |<- line
| gain   |  2.223E-03   2.250E-03* unnecessary unnecessary unnecessary  |<- line
+--------+--------------------------------------------------------------+<- line
 * indicates the final, accepted state (should have the lowest energy)          
 
+------------------- WAVEFUNCTION LINE MINIMISATION --------------------+<- line
| Initial energy = -6.315375E+003 eV; initial dE/dstep = -2.751E-003 eV |<- line
|                                                                       |<- line
|            1st step    2nd step    3rd step    4th step    5th step   |<- line
+--------+--------------------------------------------------------------+<- line
| step   |  1.500E+00   1.225E+00* unnecessary unnecessary unnecessary  |<- line
| gain   |  1.600E-03   1.685E-03* unnecessary unnecessary unnecessary  |<- line
+--------+--------------------------------------------------------------+<- line
 * indicates the final, accepted state (should have the lowest energy)          
 
+------------------- WAVEFUNCTION LINE MINIMISATION --------------------+<- line
| Initial energy = -6.315376E+003 eV; initial dE/dstep = -1.647E-003 eV |<- line
|                                                                       |<- line
|            1st step    2nd step    3rd step    4th step    5th step   |<- line
+--------+--------------------------------------------------------------+<- line
| step   |  1.500E+00   1.065E+00* unnecessary unnecessary unnecessary  |<- line
| gain   |  7.303E-04   8.769E-04* unnecessary unnecessary unnecessary  |<- line
+--------+--------------------------------------------------------------+<- line
 * indicates the final, accepted state (should have the lowest energy)          
 
+------------------- WAVEFUNCTION LINE MINIMISATION --------------------+<- line
| Initial energy = -6.315377E+003 eV; initial dE/dstep = -9.608E-004 eV |<- line
|                                                                       |<- line
|            1st step    2nd step    3rd step    4th step    5th step   |<- line
+--------+--------------------------------------------------------------+<- line
| step   |  1.500E+00   9.922E-01* unnecessary unnecessary unnecessary  |<- line
| gain   |  3.518E-04   4.767E-04* unnecessary unnecessary unnecessary  |<- line
+--------+--------------------------------------------------------------+<- line
 * indicates the final, accepted state (should have the lowest energy)          
 
+------------------- WAVEFUNCTION LINE MINIMISATION --------------------+<- line
| Initial energy = -6.315378E+003 eV; initial dE/dstep = -4.916E-004 eV |<- line
|                                                                       |<- line
|            1st step    2nd step    3rd step    4th step    5th step   |<- line
+--------+--------------------------------------------------------------+<- line
| step   |  1.500E+00   9.978E-01* unnecessary unnecessary unnecessary  |<- line
| gain   |  1.831E-04   2.453E-04* unnecessary unnecessary unnecessary  |<- line
+--------+--------------------------------------------------------------+<- line
 * indicates the final, accepted state (should have the lowest energy)          
 
+------------------- WAVEFUNCTION LINE MINIMISATION --------------------+<- line
| Initial energy = -6.315378E+003 eV; initial dE/dstep = -2.260E-004 eV |<- line
|                                                                       |<- line
|            1st step    2nd step    3rd step    4th step    5th step   |<- line
+--------+--------------------------------------------------------------+<- line
| step   |  1.500E+00   1.035E+00* unnecessary unnecessary unnecessary  |<- line
| gain   |  9.346E-05   1.170E-04* unnecessary unnecessary unnecessary  |<- line
+--------+--------------------------------------------------------------+<- line
 * indicates the final, accepted state (should have the lowest energy)          
 
+------------------- WAVEFUNCTION LINE MINIMISATION --------------------+<- line
| Initial energy = -6.315378E+003 eV; initial dE/dstep = -1.137E-004 eV |<- line
|                                                                       |<- line
|            1st step    2nd step    3rd step    4th step    5th step   |<- line
+--------+--------------------------------------------------------------+<- line
| step   |  1.500E+00   9.744E-01* unnecessary unnecessary unnecessary  |<- line
| gain   |  3.927E-05   5.539E-05* unnecessary unnecessary unnecessary  |<- line
+--------+--------------------------------------------------------------+<- line
 * indicates the final, accepted state (should have the lowest energy)          
 
+------------------- WAVEFUNCTION LINE MINIMISATION --------------------+<- line
| Initial energy = -6.315378E+003 eV; initial dE/dstep = -5.055E-005 eV |<- line
|                                                                       |<- line
|            1st step    2nd step    3rd step    4th step    5th step   |<- line
+--------+--------------------------------------------------------------+<- line
| step   |  1.500E+00   8.056E-01* unnecessary unnecessary unnecessary  |<- line
| gain   |  5.231E-06   2.036E-05* unnecessary unnecessary unnecessary  |<- line
+--------+--------------------------------------------------------------+<- line
 * indicates the final, accepted state (should have the lowest energy)          
 
      4  -6.31537816E+003                    6.99834856E-004     301.86  <-- SCF
+------------------- WAVEFUNCTION LINE MINIMISATION --------------------+<- line
| Initial energy = -6.315378E+003 eV; initial dE/dstep = -2.077E-005 eV |<- line
|                                                                       |<- line
|            1st step    2nd step    3rd step    4th step    5th step   |<- line
+--------+--------------------------------------------------------------+<- line
| step   |  1.500E+00   9.731E-01* unnecessary unnecessary unnecessary  |<- line
| gain   |  7.143E-06   1.011E-05* unnecessary unnecessary unnecessary  |<- line
+--------+--------------------------------------------------------------+<- line
 * indicates the final, accepted state (should have the lowest energy)          
 
+------------------- WAVEFUNCTION LINE MINIMISATION --------------------+<- line
| Initial energy = -6.315378E+003 eV; initial dE/dstep = -1.669E-005 eV |<- line
|                                                                       |<- line
|            1st step    2nd step    3rd step    4th step    5th step   |<- line
+--------+--------------------------------------------------------------+<- line
| step   |  1.500E+00   1.156E+00* unnecessary unnecessary unnecessary  |<- line
| gain   |  8.794E-06   9.649E-06* unnecessary unnecessary unnecessary  |<- line
+--------+--------------------------------------------------------------+<- line
 * indicates the final, accepted state (should have the lowest energy)          
 
+------------------- WAVEFUNCTION LINE MINIMISATION --------------------+<- line
| Initial energy = -6.315378E+003 eV; initial dE/dstep = -1.042E-005 eV |<- line
|                                                                       |<- line
|            1st step    2nd step    3rd step    4th step    5th step   |<- line
+--------+--------------------------------------------------------------+<- line
| step   |  1.500E+00   1.029E+00* unnecessary unnecessary unnecessary  |<- line
| gain   |  4.242E-06   5.364E-06* unnecessary unnecessary unnecessary  |<- line
+--------+--------------------------------------------------------------+<- line
 * indicates the final, accepted state (should have the lowest energy)          
 
+------------------- WAVEFUNCTION LINE MINIMISATION --------------------+<- line
| Initial energy = -6.315378E+003 eV; initial dE/dstep = -5.166E-006 eV |<- line
|                                                                       |<- line
|            1st step    2nd step    3rd step    4th step    5th step   |<- line
+--------+--------------------------------------------------------------+<- line
| step   |  1.500E+00   1.044E+00* unnecessary unnecessary unnecessary  |<- line
| gain   |  2.183E-06   2.697E-06* unnecessary unnecessary unnecessary  |<- line
+--------+--------------------------------------------------------------+<- line
 * indicates the final, accepted state (should have the lowest energy)          
 
+------------------- WAVEFUNCTION LINE MINIMISATION --------------------+<- line
| Initial energy = -6.315378E+003 eV; initial dE/dstep = -2.610E-006 eV |<- line
|                                                                       |<- line
|            1st step    2nd step    3rd step    4th step    5th step   |<- line
+--------+--------------------------------------------------------------+<- line
| step   |  1.500E+00   9.788E-01* unnecessary unnecessary unnecessary  |<- line
| gain   |  9.153E-07   1.277E-06* unnecessary unnecessary unnecessary  |<- line
+--------+--------------------------------------------------------------+<- line
 * indicates the final, accepted state (should have the lowest energy)          
 
+------------------- WAVEFUNCTION LINE MINIMISATION --------------------+<- line
| Initial energy = -6.315378E+003 eV; initial dE/dstep = -1.257E-006 eV |<- line
|                                                                       |<- line
|            1st step    2nd step    3rd step    4th step    5th step   |<- line
+--------+--------------------------------------------------------------+<- line
| step   |  1.500E+00   9.524E-01* unnecessary unnecessary unnecessary  |<- line
| gain   |  4.009E-07   5.988E-07* unnecessary unnecessary unnecessary  |<- line
+--------+--------------------------------------------------------------+<- line
 * indicates the final, accepted state (should have the lowest energy)          
 
+------------------- WAVEFUNCTION LINE MINIMISATION --------------------+<- line
| Initial energy = -6.315378E+003 eV; initial dE/dstep = -5.893E-007 eV |<- line
|                                                                       |<- line
|            1st step    2nd step    3rd step    4th step    5th step   |<- line
+--------+--------------------------------------------------------------+<- line
| step   |  1.500E+00   1.039E+00* unnecessary unnecessary unnecessary  |<- line
| gain   |  2.459E-07   3.062E-07* unnecessary unnecessary unnecessary  |<- line
+--------+--------------------------------------------------------------+<- line
 * indicates the final, accepted state (should have the lowest energy)          
 
+------------------- WAVEFUNCTION LINE MINIMISATION --------------------+<- line
| Initial energy = -6.315378E+003 eV; initial dE/dstep = -2.647E-007 eV |<- line
|                                                                       |<- line
|            1st step    2nd step    3rd step    4th step    5th step   |<- line
+--------+--------------------------------------------------------------+<- line
| step   |  1.500E+00   9.870E-01* unnecessary unnecessary unnecessary  |<- line
| gain   |  9.533E-08   1.306E-07* unnecessary unnecessary unnecessary  |<- line
+--------+--------------------------------------------------------------+<- line
 * indicates the final, accepted state (should have the lowest energy)          
 
+------------------- WAVEFUNCTION LINE MINIMISATION --------------------+<- line
| Initial energy = -6.315378E+003 eV; initial dE/dstep = -1.158E-007 eV |<- line
|                                                                       |<- line
|            1st step    2nd step    3rd step    4th step    5th step   |<- line
+--------+--------------------------------------------------------------+<- line
| step   |  1.500E+00   1.104E+00* unnecessary unnecessary unnecessary  |<- line
| gain   |  5.575E-08   6.396E-08* unnecessary unnecessary unnecessary  |<- line
+--------+--------------------------------------------------------------+<- line
 * indicates the final, accepted state (should have the lowest energy)          
 
      5  -6.31537819E+003                    2.51613832E-006     374.75  <-- SCF
+------------------- WAVEFUNCTION LINE MINIMISATION --------------------+<- line
| Initial energy = -6.315378E+003 eV; initial dE/dstep = -1.157E-007 eV |<- line
|                                                                       |<- line
|            1st step    2nd step    3rd step    4th step    5th step   |<- line
+--------+--------------------------------------------------------------+<- line
| step   |  1.500E+00   6.488E-01* unnecessary unnecessary unnecessary  |<- line
| gain   | -2.709E-08   3.755E-08* unnecessary unnecessary unnecessary  |<- line
+--------+--------------------------------------------------------------+<- line
 * indicates the final, accepted state (should have the lowest energy)          
 
+------------------- WAVEFUNCTION LINE MINIMISATION --------------------+<- line
| Initial energy = -6.315378E+003 eV; initial dE/dstep = -4.556E-008 eV |<- line
|                                                                       |<- line
|            1st step    2nd step    3rd step    4th step    5th step   |<- line
+--------+--------------------------------------------------------------+<- line
| step   |  1.500E+00   1.335E+00* unnecessary unnecessary unnecessary  |<- line
| gain   |  2.995E-08   3.041E-08* unnecessary unnecessary unnecessary  |<- line
+--------+--------------------------------------------------------------+<- line
 * indicates the final, accepted state (should have the lowest energy)          
 
+------------------- WAVEFUNCTION LINE MINIMISATION --------------------+<- line
| Initial energy = -6.315378E+003 eV; initial dE/dstep = -3.710E-008 eV |<- line
|                                                                       |<- line
|            1st step    2nd step    3rd step    4th step    5th step   |<- line
+--------+--------------------------------------------------------------+<- line
| step   |  1.500E+00   1.190E+00* unnecessary unnecessary unnecessary  |<- line
| gain   |  2.059E-08   2.208E-08* unnecessary unnecessary unnecessary  |<- line
+--------+--------------------------------------------------------------+<- line
 * indicates the final, accepted state (should have the lowest energy)          
 
+------------------- WAVEFUNCTION LINE MINIMISATION --------------------+<- line
| Initial energy = -6.315378E+003 eV; initial dE/dstep = -2.230E-008 eV |<- line
|                                                                       |<- line
|            1st step    2nd step    3rd step    4th step    5th step   |<- line
+--------+--------------------------------------------------------------+<- line
| step   |  1.500E+00   1.041E+00* unnecessary unnecessary unnecessary  |<- line
| gain   |  9.355E-09   1.162E-08* unnecessary unnecessary unnecessary  |<- line
+--------+--------------------------------------------------------------+<- line
 * indicates the final, accepted state (should have the lowest energy)          
 
+------------------- WAVEFUNCTION LINE MINIMISATION --------------------+<- line
| Initial energy = -6.315378E+003 eV; initial dE/dstep = -1.269E-008 eV |<- line
|                                                                       |<- line
|            1st step    2nd step    3rd step    4th step    5th step   |<- line
+--------+--------------------------------------------------------------+<- line
| step   |  1.500E+00   1.001E+00* unnecessary unnecessary unnecessary  |<- line
| gain   |  4.779E-09   6.353E-09* unnecessary unnecessary unnecessary  |<- line
+--------+--------------------------------------------------------------+<- line
 * indicates the final, accepted state (should have the lowest energy)          
 
+------------------- WAVEFUNCTION LINE MINIMISATION --------------------+<- line
| Initial energy = -6.315378E+003 eV; initial dE/dstep = -6.343E-009 eV |<- line
|                                                                       |<- line
|            1st step    2nd step    3rd step    4th step    5th step   |<- line
[...]
 + -------------------------------------------------------------------------- +
 +  q-pt=    1 (  0.000000  0.000000  0.000000)     1.0000000000              +
 +  q->0 along (  0.000000  0.000000  1.000000)                               +
 + -------------------------------------------------------------------------- +
 +  Acoustic sum rule correction <  18.436081 cm-1 applied                    +
 +     N      Frequency irrep.    ir intensity active            raman active + 
 +                (cm-1)         ((D/A)**2/amu)                               + 
 +                                                                            +
 +     1     -40.390511   a          0.0000000  Y                       N     + 
 +     2      -0.034740   a          0.0000000  N                       N     + 
 +     3      -0.022624   a          0.0000000  N                       N     + 
 +     4       1.501453   a          0.0057224  N                       N     + 
 +     5      81.505677   b          0.0000000  N                       Y     + 
 +     6      88.884242   a          2.9926868  Y                       N     + 
 +     7     103.772281   b          0.0000000  N                       Y     + 
 +     8     110.077977   b          0.0000000  N                       Y     + 
 +     9     121.843352   b          0.0000000  N                       Y     + 
 +    10     125.728959   a          0.6058944  Y                       N     + 
 +    11     165.797595   a          0.4758372  Y                       N     + 
 +    12     188.600398   b          0.0000000  N                       Y     + 
 +    13     199.831718   b          0.0000000  N                       Y     + 
 +    14     200.482072   a          3.7432698  Y                       N     + 
 +    15     210.702315   b          0.0000000  N                       Y     + 
 +    16     239.310472   b          0.0000000  N                       Y     + 
 +    17     242.829182   a          2.9774786  Y                       N     + 
 +    18     331.173660   b          0.0000000  N                       Y     + 
 +    19     351.842320   a          0.0802333  Y                       N     + 
 +    20     477.979375   a          0.1373809  Y                       N     + 
 +    21     496.179347   b          0.0000000  N                       Y     + 
 +    22     527.645677   a          1.5949415  Y                       N     + 
 +    23     546.192379   a          1.4086819  Y                       N     + 
 +    24     559.765040   b          0.0000000  N                       Y     + 
 +    25     577.759085   b          0.0000000  N                       Y     + 
 +    26     615.029847   a          4.3239146  Y                       N     + 
 +    27     687.164264   b          0.0000000  N                       Y     + 
 +    28     748.401423   a         18.1194979  Y                       N     + 
 +    29     985.914402   b          0.0000000  N                       Y     + 
 +    30    1126.832924   a         12.5110552  Y                       N     + 
 +    31    1154.219538   b          0.0000000  N                       Y     + 
 +    32    1356.868136   b          0.0000000  N                       Y     + 
 +    33    1372.324875   a         29.3490661  Y                       N     + 
 +    34    1430.779384   b          0.0000000  N                       Y     + 
 +    35    1432.281796   a         27.0760690  Y                       N     + 
 +    36    2506.582913   b          0.0000000  N                       Y     + 
 + .......................................................................... +
 +        Character table from group theory analysis of eigenvectors          +
 +                           Point Group =   2, Ci                            +
 + (Due to LO/TO splitting this character table may not contain some symmetry +
 +  operations of the full crystallographic point group.  Additional          +
 +  representations may be also be present corresponding to split LO modes.   +
 +  A conventional analysis can be generated by specifying an additional null +
 +  (all zero) field direction or one along any unique crystallographic axis  +
 +  in %BLOCK PHONON_GAMMA_DIRECTIONS in <seedname>.cell.)                    +
 + .......................................................................... +
 +  Rep  Mul |    E   I                                                       +
 +           | --------                                                       +
 + a Au   18 |    1  -1                                                       +
 + b Ag   18 |    1   1                                                       +
 ==============================================================================
Checkpointing calculation.
No previous checkpoint time recorded. Continue execution.

 ******************************* User Parameters *******************************
iprint                  : 2                # verbosity control (I)
calculatestress         : T                # stress on/off (L)
calculatedensdiff       : F                # calculate density difference based on atoms (L)
electronicminimizer     : CG               # electronic minimization method (S)
maxcgsteps              : 8                # max. number of conjugate gradient steps (I)
elecenergytol           : 0.0000000 ev     # total energy per atom convergence tolerance (P)
maxscfcycles            : 200              # maximum SCF cycles (I)
numdumpcycles           : 0                # frequency of wavefunction dumps (I)
popncalculate           : T                # population analysis on/off (L)
pdoscalculateweights    : F                # partial DOS analysis on/off (L)
geommaxiter             : 100              # maximum number of geometry optimization iterations (I)
geomenergytol           : 0.0000010 ev     # geometry optimization energy convergence tolerance (P)
geomforcetol            : 0.0010000 ev/ang # geometry optimization force convergence tolerance (P)
geomdisptol             : 0.0002000 ang    # geometry optimization displacement convergence tolerance (P)
geomstresstol           : 0.0010000 gpa    # geometry optimization stress convergence tolerance (P)
phononmaxcycles         : 400              # maximum cycles in LR (I)
phononcalclotosplitting : T                # gamma-point phonon LO/TO correction (L)
calculateborncharges    : T                # calculate Born effective charges (L)
bornchargesumrule       : T                # enforce Born charge sum rule (L)
efieldmaxcycles         : 400              # maximum cycles in EFIELD (I)

 *******************************************************************************
  
 ??????????????????????????????????????????????????????????????????????????????? 
     ERROR calculating ionic contribution to permittivity
     tiny or imaginary frequency     0.224716E-01 * i cm-1 detected
     Ionic Permittivity is divergent or infinite.
 ??????????????????????????????????????????????????????????????????????????????? 

 ===============================================================================
        Optical Permittivity (f->infinity)             DC Permittivity (f=0)
        ----------------------------------             ---------------------
         2.26111    -0.04199    -0.10634        Infinity    Infinity    Infinity
        -0.04199     2.20331     0.07345        Infinity    Infinity    Infinity
        -0.10634     0.07345     2.34564        Infinity    Infinity    Infinity
 ===============================================================================

 ===============================================================================
                                    Polarisabilities (A**3)
                Optical (f->infinity)                       Static  (f=0)
                ---------------------                       -------------
        15.24211    -0.50751    -1.28525        Infinity    Infinity    Infinity
        -0.50751    14.54346     0.88777        Infinity    Infinity    Infinity
        -1.28525     0.88777    16.26377        Infinity    Infinity    Infinity
 ===============================================================================
 ===================================================
                   Born Effective Charges
                   ----------------------
   O       1        -0.53495     0.23641     0.31703
                     0.19022    -0.82721    -0.35398
                     0.29939    -0.38213    -0.76584
   O       2        -0.53495     0.23641     0.31703
                     0.19022    -0.82721    -0.35398
                     0.29939    -0.38213    -0.76584
   O       3        -1.23982    -0.26405     0.41395
                    -0.46979    -1.15972     0.37792
                     0.38230     0.17050    -1.18245
   O       4        -1.23982    -0.26405     0.41395
                    -0.46979    -1.15972     0.37792
                     0.38230     0.17050    -1.18245
   O       5        -1.37389    -0.39429    -0.57208
                    -0.16191    -1.09257    -0.44792
                    -0.27070    -0.26839    -1.33926
   O       6        -1.37389    -0.39429    -0.57208
                    -0.16191    -1.09257    -0.44792
                    -0.27070    -0.26839    -1.33926
   O       7        -1.14030     0.32870    -0.15207
                     0.53946    -1.36930     0.13390
                    -0.34869     0.40765    -1.16642
   O       8        -1.14030     0.32870    -0.15207
                     0.53946    -1.36930     0.13390
                    -0.34869     0.40765    -1.16642
   Na      1         1.19273     0.03601     0.03810
                     0.04528     1.19305    -0.03881
                     0.03919    -0.03689     1.18165
   Na      2         1.19273     0.03601     0.03810
                     0.04528     1.19305    -0.03881
                     0.03919    -0.03689     1.18165
   S       1         3.09623     0.05721    -0.04493
                    -0.14327     3.25576     0.32890
                    -0.10149     0.10926     3.27232
   S       2         3.09623     0.05721    -0.04493
                    -0.14327     3.25576     0.32890
                    -0.10149     0.10926     3.27232
 ===================================================
 
 ***************** Symmetrised Forces *****************
 *                                                    *
 *            Cartesian components (eV/A)             *
 * -------------------------------------------------- *
 *                   x            y            z      *
 *                                                    *
 * O         1      0.00001      0.00007      0.00013 *
 * O         2     -0.00001     -0.00007     -0.00013 *
 * O         3      0.00008      0.00022     -0.00008 *
 * O         4     -0.00008     -0.00022      0.00008 *
 * O         5     -0.00005     -0.00018      0.00047 *
 * O         6      0.00005      0.00018     -0.00047 *
 * O         7     -0.00030     -0.00000     -0.00018 *
 * O         8      0.00030      0.00000      0.00018 *
 * Na        1      0.00011      0.00013      0.00031 *
 * Na        2     -0.00011     -0.00013     -0.00031 *
 * S         1      0.00024      0.00009      0.00018 *
 * S         2     -0.00024     -0.00009     -0.00018 *
 *                                                    *
 ******************************************************
 
 ************** Ewald stress tensor **************
 *                                               *
 *          Cartesian components (GPa)           *
 * --------------------------------------------- *
 *             x             y             z     *
 *                                               *
 *  x   1324.099178   -157.935701    234.508243  *
 *  y   -157.935701   1418.517413     70.332747  *
 *  z    234.508243     70.332747   1091.740180  *
 *                                               *
 *  Pressure:-1278.1189                          *
 *                                               *
 *************************************************
 
 ********* Kinetic energy stress tensor **********
 *                                               *
 *          Cartesian components (GPa)           *
 * --------------------------------------------- *
 *             x             y             z     *
 *                                               *
 *  x  -2582.397088     22.384800    -32.410101  *
 *  y     22.384800  -2593.404197    -21.636089  *
 *  z    -32.410101    -21.636089  -2580.652314  *
 *                                               *
 *  Pressure: 2585.4845                          *
 *                                               *
 *************************************************
 
 ********* Local potential stress tensor *********
 *                                               *
 *          Cartesian components (GPa)           *
 * --------------------------------------------- *
 *             x             y             z     *
 *                                               *
 *  x   1360.637941    147.946004   -220.682641  *
 *  y    147.946004   1265.041233    -61.268014  *
 *  z   -220.682641    -61.268014   1592.273086  *
 *                                               *
 *  Pressure:-1405.9841                          *
 *                                               *
 *************************************************
 
 ******* Non-local potential stress tensor *******
 *                                               *
 *          Cartesian components (GPa)           *
 * --------------------------------------------- *
 *             x             y             z     *
 *                                               *
 *  x   -100.102759    -12.327719     17.803225  *
 *  y    -12.327719    -88.503284     13.029807  *
 *  z     17.803225     13.029807   -101.087962  *
 *                                               *
 *  Pressure:   96.5647                          *
 *                                               *
 *************************************************
 
 *** NL screened/exact exchange stress tensor ****
 *                                               *
 *          Cartesian components (GPa)           *
 * --------------------------------------------- *
 *             x             y             z     *
 *                                               *
 *  x      0.000000      0.000000      0.000000  *
 *  y      0.000000      0.000000      0.000000  *
 *  z      0.000000      0.000000      0.000000  *
 *                                               *
 *  Pressure:    0.0000                          *
 *                                               *
 *************************************************
 
 *********** Symmetrised Stress Tensor ***********
 *                                               *
 *          Cartesian components (GPa)           *
 * --------------------------------------------- *
 *             x             y             z     *
 *                                               *
 *  x      2.237271      0.067385     -0.781274  *
 *  y      0.067385      1.651165      0.458451  *
 *  z     -0.781274      0.458451      2.272989  *
 *                                               *
 *  Pressure:   -2.0538                          *
 *                                               *
 *************************************************
 
 Pseudo atomic calculation performed for O 2s2 2p4
 
 Converged in 46 iterations to a total energy of -421.5931 eV
 
 
 Pseudo atomic calculation performed for Na 2s2 2p6 3s1
 
 Converged in 31 iterations to a total energy of -1154.2432 eV
 
 
 Pseudo atomic calculation performed for S 3s2 3p4
 
 Converged in 40 iterations to a total energy of -276.6591 eV
 
Charge spilling parameter for spin component 1 = 1.49%
The total projected population is   77.993  -0.000
 
     Atomic Populations (Mulliken)
     -----------------------------
Species   Ion     s      p      d      f     Total  Charge (e)
==============================================================
  O        1     1.66   4.76   0.00   0.00   6.42    -0.42
  O        2     1.66   4.76   0.00   0.00   6.42    -0.42
  O        3     1.85   5.10   0.00   0.00   6.96    -0.96
  O        4     1.85   5.10   0.00   0.00   6.96    -0.96
  O        5     1.85   5.12   0.00   0.00   6.97    -0.97
  O        6     1.85   5.12   0.00   0.00   6.97    -0.97
  O        7     1.86   5.11   0.00   0.00   6.96    -0.96
  O        8     1.86   5.11   0.00   0.00   6.96    -0.96
  Na       1     2.08   6.02   0.00   0.00   8.10     0.90
  Na       2     2.08   6.02   0.00   0.00   8.10     0.90
  S        1     1.04   2.55   0.00   0.00   3.58     2.42
  S        2     1.04   2.55   0.00   0.00   3.58     2.42
==============================================================
 
            Bond              Population      Length (A)
============================================================
          O 1 -- O 2              -0.13        1.01742
          O 3 -- S 1               0.71        1.38775
          O 4 -- S 2               0.71        1.38775
          O 8 -- S 2               0.67        1.39767
          O 7 -- S 1               0.67        1.39767
          O 6 -- S 2               0.66        1.39956
          O 5 -- S 1               0.66        1.39956
          O 1 -- S 1               0.33        1.59196
          O 2 -- S 2               0.33        1.59196
          O 2 -- S 1              -0.26        2.23990
          O 1 -- S 2              -0.26        2.23990
          O 2 -- O 4              -0.18        2.28629
          O 1 -- O 3              -0.18        2.28629
          O 5 -- O 7              -0.23        2.32281
          O 6 -- O 8              -0.23        2.32281
          O 7 -- Na 2              0.09        2.34310
          O 8 -- Na 1              0.09        2.34310
          O 4 -- O 6              -0.20        2.36428
          O 3 -- O 5              -0.20        2.36428
          O 4 -- Na 2              0.05        2.36540
          O 3 -- Na 1              0.05        2.36540
          O 4 -- O 8              -0.20        2.36640
          O 3 -- O 7              -0.20        2.36640
          O 2 -- O 6              -0.18        2.37340
          O 1 -- O 5              -0.18        2.37340
          O 2 -- O 8              -0.17        2.37690
          O 1 -- O 7              -0.17        2.37690
          O 5 -- Na 1              0.07        2.37981
          O 6 -- Na 2              0.07        2.37981
          O 6 -- Na 1              0.07        2.38194
          O 5 -- Na 2              0.07        2.38194
          O 8 -- Na 2              0.03        2.61475
          O 7 -- Na 1              0.03        2.61475
          O 1 -- O 8               0.00        2.67211
          O 2 -- O 7               0.00        2.67211
          O 1 -- O 6               0.01        2.69325
          O 2 -- O 5               0.01        2.69325
          O 4 -- Na 1              0.03        2.72019
          O 3 -- Na 2              0.03        2.72019
============================================================
 

Writing analysis data to Na2SO42_phonon.castep_bin

Writing model to Na2SO42_phonon.check
 
 A BibTeX formatted list of references used in this run has been written to 
 Na2SO42_phonon.bib
 
Initialisation time =      2.36 s
Calculation time    =   8176.48 s
Finalisation time   =      1.42 s
Total time          =   8180.26 s
Peak Memory Use     = 550796 kB
  
Overall parallel efficiency rating: Terrible (14%)                              
  
Data was distributed by:-
G-vector (13-way); efficiency rating: Terrible (14%)                            
k-point (3-way); efficiency rating: Very good (84%)                             
  
Parallel notes:
1) SMP optimisations were not used.                                             
2) k-points were not fully distributed, there were 35 k-points per process.     
