Running the following command
mpirun -np 8 /home/software/bin/ph.x -inp Na2SO42.ph.in

     Program PHONON v.7.3.1 starts on 11Aug2024 at 17:18:59 
        Git branch: master
        Last git commit: 7fd60c9bc9fe7a7d1fe6f1049f4afba0eab9aeef-dirty
        Last git commit date: Thu Feb 29 10:18:05 2024 +0000
        Last git commit subject: Merge branch 'master_qe_7.3.1' into 'master'

     This program is part of the open-source Quantum ESPRESSO suite
     for quantum simulation of materials; please cite
         "P. Giannozzi et al., J. Phys.:Condens. Matter 21 395502 (2009);
         "P. Giannozzi et al., J. Phys.:Condens. Matter 29 465901 (2017);
         "P. Giannozzi et al., J. Chem. Phys. 152 154105 (2020);
          URL http://www.quantum-espresso.org", 
     in publications or presentations arising from this work. More details at
     http://www.quantum-espresso.org/quote

     Parallel version (MPI), running on     8 processors

     MPI processes distributed on     1 nodes
     7823 MiB available memory on the printing compute node when the environment starts

     Reading input from Na2SO42.ph.in

     Reading xml data from directory:

     ./pwscf.save/

     R & G space division:  proc/nbgrp/npool/nimage =       8
     Subspace diagonalization in iterative solution of the eigenvalue problem:
     a serial algorithm will be used


     IMPORTANT: XC functional enforced from input :
     Exchange-correlation= PBE
                           (   1   4   3   4   0   0   0)
     Any further DFT definition will be discarded
     Please, verify this is what you really want


     Parallelization info
     --------------------
     sticks:   dense  smooth     PW     G-vecs:    dense   smooth      PW
     Min         112     112     33                 2842     2842     467
     Max         113     113     34                 2845     2845     470
     Sum         903     903    269                22745    22745    3747

     Using Slab Decomposition


     Check: negative core charge=   -0.000009
     Reading collected, re-writing distributed wavefunctions in ./

     Number and degeneracy of irreps per q-point
       N         xq(1)         xq(2)         xq(3)   N irreps
       1   0.000000000   0.000000000   0.000000000      36
     No degeneracy

     Calculation of q =    0.0000000   0.0000000   0.0000000

     Phonons at Gamma Point with IR                                             

     bravais-lattice index     =            0
     lattice parameter (alat)  =       9.0329  a.u.
     unit-cell volume          =    1024.9399 (a.u.)^3
     number of atoms/cell      =           12
     number of atomic types    =            3
     kinetic-energy cut-off    =      30.0000  Ry
     charge density cut-off    =     120.0000  Ry
     convergence threshold     =      1.0E-14
     beta                      =       0.7000
     number of iterations used =            4
     Exchange-correlation= PBE
                           (   1   4   3   4   0   0   0)


     celldm(1)=    9.03289  celldm(2)=    0.00000  celldm(3)=    0.00000
     celldm(4)=    0.00000  celldm(5)=    0.00000  celldm(6)=    0.00000

     crystal axes: (cart. coord. in units of alat)
               a(1) = (  1.0000  0.0000  0.0000 )  
               a(2) = ( -0.1506  1.1566  0.0000 )  
               a(3) = ( -0.2939 -0.3026  1.2024 )  

     reciprocal axes: (cart. coord. in units 2 pi/alat)
               b(1) = (  1.0000  0.1302  0.2772 )  
               b(2) = ( -0.0000  0.8646  0.2176 )  
               b(3) = (  0.0000 -0.0000  0.8317 )  


     Atoms inside the unit cell: 

     Cartesian axes

     site n.  atom      mass           positions (alat units)
        1  S      32.0675   tau(    1) = (    0.42334    0.82495    0.29327  )
        2  S      32.0675   tau(    2) = (    0.13213    0.02899    0.90914  )
        3  Na     22.9890   tau(    3) = (   -0.07324    0.29981    0.25255  )
        4  Na     22.9890   tau(    4) = (    0.62871    0.55413    0.94986  )
        5  O      15.9990   tau(    5) = (    0.45334   -0.08101    0.50163  )
        6  O      15.9990   tau(    6) = (    0.10213    0.93495    0.70078  )
        7  O      15.9990   tau(    7) = (    0.60765    1.00431    0.12804  )
        8  O      15.9990   tau(    8) = (   -0.05218   -0.15036    1.07436  )
        9  O      15.9990   tau(    9) = (    0.18026    0.71218    0.14619  )
       10  O      15.9990   tau(   10) = (    0.37522    0.14177    1.05622  )
       11  O      15.9990   tau(   11) = (    0.56245    0.61853    0.47127  )
       12  O      15.9990   tau(   12) = (   -0.00698    0.23541    0.73113  )

     Computing dynamical matrix for 
                    q = (   0.0000000   0.0000000   0.0000000 )

      3 Sym.Ops. (with q -> -q+G )


     G cutoff =  248.0133  (   2843 G-vectors)     FFT grid: ( 32, 40, 45)
     number of k points=   106

     PseudoPot. # 1 for Na read from file:
     /home/software/PseudoPotentials/QE/Na.pbe-sp-van_ak.UPF
     MD5 check sum: b3e39564eed18be2046c1643d42efc62
     Pseudo is Ultrasoft, Zval =  9.0
     Generated by new atomic code, or converted to UPF format
     Using radial grid of  819 points,  6 beta functions with: 
                l(1) =   0
                l(2) =   0
                l(3) =   1
                l(4) =   1
                l(5) =   2
                l(6) =   2
     Q(r) pseudized with  8 coefficients,  rinner =    0.900   0.900   0.900
                                                       0.900   0.900

     PseudoPot. # 2 for S  read from file:
     /home/software/PseudoPotentials/QE/S.pbe-n-rrkjus_psl.0.1.UPF
     MD5 check sum: e5b4535a4bf9e0cc2db60196e4d9c48e
     Pseudo is Ultrasoft + core correction, Zval =  6.0
     Generated using "atomic" code by A. Dal Corso  v.5.0.2 svn rev. 9415
     Using radial grid of 1151 points,  4 beta functions with: 
                l(1) =   0
                l(2) =   0
                l(3) =   1
                l(4) =   1
     Q(r) pseudized with 0 coefficients 


     PseudoPot. # 3 for O  read from file:
     /home/software/PseudoPotentials/QE/O.pbe-van_ak.UPF
     MD5 check sum: 78c19812648e8988a0fe644b0f25305e
     Pseudo is Ultrasoft, Zval =  6.0
     Generated by new atomic code, or converted to UPF format
     Using radial grid of  737 points,  4 beta functions with: 
                l(1) =   0
                l(2) =   0
                l(3) =   1
                l(4) =   1
     Q(r) pseudized with  8 coefficients,  rinner =    0.800   0.800   0.800


     Mode symmetry, C_i (-1)    point group:


     Electric field:
     Dielectric constant
     Born effective charges as d Force / d E


     Atomic displacements:
     There are   36 irreducible representations

     Representation     1      1 modes -  To be done

     Representation     2      1 modes -  To be done

     Representation     3      1 modes -  To be done

     Representation     4      1 modes -  To be done

     Representation     5      1 modes -  To be done

     Representation     6      1 modes -  To be done

     Representation     7      1 modes -  To be done

     Representation     8      1 modes -  To be done

     Representation     9      1 modes -  To be done

     Representation    10      1 modes -  To be done

     Representation    11      1 modes -  To be done

     Representation    12      1 modes -  To be done

     Representation    13      1 modes -  To be done

     Representation    14      1 modes -  To be done

     Representation    15      1 modes -  To be done

     Representation    16      1 modes -  To be done

     Representation    17      1 modes -  To be done

     Representation    18      1 modes -  To be done

     Representation    19      1 modes -  To be done

     Representation    20      1 modes -  To be done

     Representation    21      1 modes -  To be done

     Representation    22      1 modes -  To be done

     Representation    23      1 modes -  To be done

     Representation    24      1 modes -  To be done

     Representation    25      1 modes -  To be done

     Representation    26      1 modes -  To be done

     Representation    27      1 modes -  To be done

     Representation    28      1 modes -  To be done

     Representation    29      1 modes -  To be done

     Representation    30      1 modes -  To be done

     Representation    31      1 modes -  To be done

     Representation    32      1 modes -  To be done

     Representation    33      1 modes -  To be done

     Representation    34      1 modes -  To be done

     Representation    35      1 modes -  To be done

     Representation    36      1 modes -  To be done



     Alpha used in Ewald sum =   1.0000
     PHONON       :     32.97s CPU     33.54s WALL


     Electric Fields Calculation

      iter #   1 total cpu time :   356.6 secs   av.it.:  10.9
      thresh= 1.000E-02 alpha_mix =  0.700 |ddv_scf|^2 =  8.720E-07

      iter #   2 total cpu time :   485.3 secs   av.it.:  21.3
      thresh= 9.338E-05 alpha_mix =  0.700 |ddv_scf|^2 =  1.825E-06

      iter #   3 total cpu time :   604.4 secs   av.it.:  19.8
      thresh= 1.351E-04 alpha_mix =  0.700 |ddv_scf|^2 =  5.989E-08

      iter #   4 total cpu time :   721.4 secs   av.it.:  19.6
      thresh= 2.447E-05 alpha_mix =  0.700 |ddv_scf|^2 =  7.619E-09

      iter #   5 total cpu time :   842.9 secs   av.it.:  20.3
      thresh= 8.729E-06 alpha_mix =  0.700 |ddv_scf|^2 =  5.477E-10

      iter #   6 total cpu time :   961.1 secs   av.it.:  19.6
      thresh= 2.340E-06 alpha_mix =  0.700 |ddv_scf|^2 =  7.722E-11

      iter #   7 total cpu time :  1083.9 secs   av.it.:  20.1
      thresh= 8.787E-07 alpha_mix =  0.700 |ddv_scf|^2 =  6.211E-12

      iter #   8 total cpu time :  1209.6 secs   av.it.:  20.9
      thresh= 2.492E-07 alpha_mix =  0.700 |ddv_scf|^2 =  4.001E-12

      iter #   9 total cpu time :  1329.1 secs   av.it.:  19.7
      thresh= 2.000E-07 alpha_mix =  0.700 |ddv_scf|^2 =  4.168E-13

      iter #  10 total cpu time :  1447.4 secs   av.it.:  19.6
      thresh= 6.456E-08 alpha_mix =  0.700 |ddv_scf|^2 =  8.714E-14

      iter #  11 total cpu time :  1572.7 secs   av.it.:  20.8
      thresh= 2.952E-08 alpha_mix =  0.700 |ddv_scf|^2 =  5.492E-14

      iter #  12 total cpu time :  1692.5 secs   av.it.:  20.1
      thresh= 2.344E-08 alpha_mix =  0.700 |ddv_scf|^2 =  2.275E-15

     End of electric fields calculation

          Dielectric constant in cartesian axis 

          (       2.466026498      -0.045628942      -0.242638904 )
          (      -0.045629242       2.313829840       0.087580211 )
          (      -0.242638838       0.087580064       2.601218934 )

          Effective charges (d Force / dE) in cartesian axis without acoustic sum rule applied (asr)

           atom    1  S     Mean Z*:        3.16059
      Ex  (        2.94276       -0.49022       -0.07630 )
      Ey  (        0.08373        3.23519        0.07406 )
      Ez  (        0.13383        0.73161        3.30382 )
           atom    2  S     Mean Z*:        3.16059
      Ex  (        2.94276       -0.49022       -0.07630 )
      Ey  (        0.08373        3.23519        0.07406 )
      Ez  (        0.13383        0.73161        3.30382 )
           atom    3  Na    Mean Z*:        1.20045
      Ex  (        1.22699        0.04319        0.00849 )
      Ey  (        0.03130        1.18477       -0.04041 )
      Ez  (       -0.01650       -0.04940        1.18958 )
           atom    4  Na    Mean Z*:        1.20045
      Ex  (        1.22699        0.04319        0.00849 )
      Ey  (        0.03130        1.18477       -0.04041 )
      Ez  (       -0.01650       -0.04940        1.18958 )
           atom    5  O     Mean Z*:       -0.68474
      Ex  (       -0.47357        0.38711        0.22600 )
      Ey  (        0.19113       -0.84548       -0.33696 )
      Ez  (        0.16297       -0.59824       -0.73518 )
           atom    6  O     Mean Z*:       -0.68474
      Ex  (       -0.47357        0.38711        0.22600 )
      Ey  (        0.19113       -0.84548       -0.33696 )
      Ez  (        0.16297       -0.59824       -0.73518 )
           atom    7  O     Mean Z*:       -1.23273
      Ex  (       -1.23505       -0.26413        0.46486 )
      Ey  (       -0.26840       -1.16909        0.17931 )
      Ez  (        0.44051        0.15017       -1.29405 )
           atom    8  O     Mean Z*:       -1.23273
      Ex  (       -1.23505       -0.26413        0.46486 )
      Ey  (       -0.26840       -1.16909        0.17931 )
      Ez  (        0.44051        0.15017       -1.29405 )
           atom    9  O     Mean Z*:       -1.20446
      Ex  (       -1.32396       -0.14705       -0.25790 )
      Ey  (       -0.35245       -1.04103       -0.25627 )
      Ez  (       -0.53371       -0.39301       -1.24838 )
           atom   10  O     Mean Z*:       -1.20446
      Ex  (       -1.32396       -0.14705       -0.25790 )
      Ey  (       -0.35245       -1.04103       -0.25627 )
      Ez  (       -0.53371       -0.39301       -1.24838 )
           atom   11  O     Mean Z*:       -1.17442
      Ex  (       -1.07500        0.46487       -0.36322 )
      Ey  (        0.30872       -1.29868        0.38792 )
      Ez  (       -0.18575        0.16676       -1.14958 )
           atom   12  O     Mean Z*:       -1.17442
      Ex  (       -1.07500        0.46487       -0.36322 )
      Ey  (        0.30872       -1.29868        0.38792 )
      Ez  (       -0.18575        0.16676       -1.14958 )

          Effective charges Sum: Mean:        0.12936
              0.12433       -0.01194        0.00272
             -0.01246        0.13135        0.01577
              0.00385        0.01528        0.13240

          Effective charges (d Force / dE) in cartesian axis with asr applied: 
           atom    1  S     Mean Z*:        3.14981
      E*x (        2.93239       -0.48918       -0.07662 )
      E*y (        0.08473        3.22424        0.07278 )
      E*z (        0.13361        0.73029        3.29279 )
           atom    2  S     Mean Z*:        3.14981
      E*x (        2.93239       -0.48918       -0.07662 )
      E*y (        0.08473        3.22424        0.07278 )
      E*z (        0.13361        0.73029        3.29279 )
           atom    3  Na    Mean Z*:        1.18967
      E*x (        1.21663        0.04423        0.00817 )
      E*y (        0.03229        1.17382       -0.04169 )
      E*z (       -0.01673       -0.05072        1.17854 )
           atom    4  Na    Mean Z*:        1.18967
      E*x (        1.21663        0.04423        0.00817 )
      E*y (        0.03229        1.17382       -0.04169 )
      E*z (       -0.01673       -0.05072        1.17854 )
           atom    5  O     Mean Z*:       -0.69552
      E*x (       -0.48393        0.38814        0.22567 )
      E*y (        0.19213       -0.85643       -0.33824 )
      E*z (        0.16274       -0.59956       -0.74621 )
           atom    6  O     Mean Z*:       -0.69552
      E*x (       -0.48393        0.38814        0.22567 )
      E*y (        0.19213       -0.85643       -0.33824 )
      E*z (        0.16274       -0.59956       -0.74621 )
           atom    7  O     Mean Z*:       -1.24351
      E*x (       -1.24541       -0.26309        0.46454 )
      E*y (       -0.26741       -1.18004        0.17804 )
      E*z (        0.44028        0.14885       -1.30509 )
           atom    8  O     Mean Z*:       -1.24351
      E*x (       -1.24541       -0.26309        0.46454 )
      E*y (       -0.26741       -1.18004        0.17804 )
      E*z (        0.44028        0.14885       -1.30509 )
           atom    9  O     Mean Z*:       -1.21524
      E*x (       -1.33432       -0.14601       -0.25822 )
      E*y (       -0.35146       -1.05198       -0.25755 )
      E*z (       -0.53393       -0.39432       -1.25941 )
           atom   10  O     Mean Z*:       -1.21524
      E*x (       -1.33432       -0.14601       -0.25822 )
      E*y (       -0.35146       -1.05198       -0.25755 )
      E*z (       -0.53393       -0.39432       -1.25941 )
           atom   11  O     Mean Z*:       -1.18520
      E*x (       -1.08536        0.46591       -0.36354 )
      E*y (        0.30971       -1.30962        0.38665 )
      E*z (       -0.18597        0.16545       -1.16062 )
           atom   12  O     Mean Z*:       -1.18520
      E*x (       -1.08536        0.46591       -0.36354 )
      E*y (        0.30971       -1.30962        0.38665 )
      E*z (       -0.18597        0.16545       -1.16062 )


     Representation #   1 mode #   1

     Self-consistent Calculation

      iter #   1 total cpu time :  2106.1 secs   av.it.:   9.0
      thresh= 1.000E-02 alpha_mix =  0.700 |ddv_scf|^2 =  3.853E-06

      iter #   2 total cpu time :  2143.0 secs   av.it.:  18.0
      thresh= 1.963E-04 alpha_mix =  0.700 |ddv_scf|^2 =  1.578E-06

      iter #   3 total cpu time :  2179.4 secs   av.it.:  18.0
      thresh= 1.256E-04 alpha_mix =  0.700 |ddv_scf|^2 =  2.643E-07

      iter #   4 total cpu time :  2215.1 secs   av.it.:  17.7
      thresh= 5.141E-05 alpha_mix =  0.700 |ddv_scf|^2 =  1.070E-08

      iter #   5 total cpu time :  2251.5 secs   av.it.:  18.0
      thresh= 1.035E-05 alpha_mix =  0.700 |ddv_scf|^2 =  8.282E-10

      iter #   6 total cpu time :  2288.3 secs   av.it.:  18.0
      thresh= 2.878E-06 alpha_mix =  0.700 |ddv_scf|^2 =  9.634E-11

      iter #   7 total cpu time :  2324.7 secs   av.it.:  18.0
      thresh= 9.815E-07 alpha_mix =  0.700 |ddv_scf|^2 =  2.865E-11

      iter #   8 total cpu time :  2360.1 secs   av.it.:  17.5
      thresh= 5.353E-07 alpha_mix =  0.700 |ddv_scf|^2 =  1.052E-12

      iter #   9 total cpu time :  2397.8 secs   av.it.:  18.9
      thresh= 1.026E-07 alpha_mix =  0.700 |ddv_scf|^2 =  3.054E-13

      iter #  10 total cpu time :  2435.3 secs   av.it.:  18.9
      thresh= 5.526E-08 alpha_mix =  0.700 |ddv_scf|^2 =  2.288E-13

      iter #  11 total cpu time :  2471.4 secs   av.it.:  18.0
      thresh= 4.783E-08 alpha_mix =  0.700 |ddv_scf|^2 =  2.853E-14

      iter #  12 total cpu time :  2514.6 secs   av.it.:  18.0
      thresh= 1.689E-08 alpha_mix =  0.700 |ddv_scf|^2 =  4.507E-15

     End of self-consistent calculation

     Convergence has been achieved 


     Representation #   2 mode #   2

     Self-consistent Calculation

      iter #   1 total cpu time :  2537.3 secs   av.it.:   9.0
      thresh= 1.000E-02 alpha_mix =  0.700 |ddv_scf|^2 =  3.621E-06

      iter #   2 total cpu time :  2580.5 secs   av.it.:  18.0
      thresh= 1.903E-04 alpha_mix =  0.700 |ddv_scf|^2 =  4.050E-06

      iter #   3 total cpu time :  2615.5 secs   av.it.:  17.0
      thresh= 2.013E-04 alpha_mix =  0.700 |ddv_scf|^2 =  2.371E-07

      iter #   4 total cpu time :  2651.5 secs   av.it.:  17.9
      thresh= 4.869E-05 alpha_mix =  0.700 |ddv_scf|^2 =  1.453E-08

      iter #   5 total cpu time :  2687.9 secs   av.it.:  18.0
      thresh= 1.206E-05 alpha_mix =  0.700 |ddv_scf|^2 =  1.038E-09

      iter #   6 total cpu time :  2723.8 secs   av.it.:  18.0
      thresh= 3.222E-06 alpha_mix =  0.700 |ddv_scf|^2 =  1.484E-10

      iter #   7 total cpu time :  2760.4 secs   av.it.:  18.0
      thresh= 1.218E-06 alpha_mix =  0.700 |ddv_scf|^2 =  1.997E-11

      iter #   8 total cpu time :  2796.1 secs   av.it.:  17.9
      thresh= 4.469E-07 alpha_mix =  0.700 |ddv_scf|^2 =  5.722E-13

      iter #   9 total cpu time :  2834.6 secs   av.it.:  19.0
      thresh= 7.564E-08 alpha_mix =  0.700 |ddv_scf|^2 =  4.833E-13

      iter #  10 total cpu time :  2871.0 secs   av.it.:  18.0
      thresh= 6.952E-08 alpha_mix =  0.700 |ddv_scf|^2 =  6.357E-14

      iter #  11 total cpu time :  2907.3 secs   av.it.:  18.0
      thresh= 2.521E-08 alpha_mix =  0.700 |ddv_scf|^2 =  4.866E-15

     End of self-consistent calculation

     Convergence has been achieved 


     Representation #   3 mode #   3

     Self-consistent Calculation

      iter #   1 total cpu time :  2928.9 secs   av.it.:   9.0
      thresh= 1.000E-02 alpha_mix =  0.700 |ddv_scf|^2 =  3.271E-06

      iter #   2 total cpu time :  2964.9 secs   av.it.:  18.0
      thresh= 1.808E-04 alpha_mix =  0.700 |ddv_scf|^2 =  7.091E-07

      iter #   3 total cpu time :  3001.6 secs   av.it.:  18.0
      thresh= 8.421E-05 alpha_mix =  0.700 |ddv_scf|^2 =  2.472E-07

      iter #   4 total cpu time :  3037.0 secs   av.it.:  17.6
      thresh= 4.972E-05 alpha_mix =  0.700 |ddv_scf|^2 =  6.733E-09

      iter #   5 total cpu time :  3073.0 secs   av.it.:  18.0
      thresh= 8.205E-06 alpha_mix =  0.700 |ddv_scf|^2 =  8.734E-10

      iter #   6 total cpu time :  3109.1 secs   av.it.:  18.0
      thresh= 2.955E-06 alpha_mix =  0.700 |ddv_scf|^2 =  6.373E-11

      iter #   7 total cpu time :  3145.8 secs   av.it.:  18.0
      thresh= 7.983E-07 alpha_mix =  0.700 |ddv_scf|^2 =  1.789E-11

      iter #   8 total cpu time :  3182.9 secs   av.it.:  18.0
      thresh= 4.230E-07 alpha_mix =  0.700 |ddv_scf|^2 =  6.206E-13

      iter #   9 total cpu time :  3220.9 secs   av.it.:  19.0
      thresh= 7.878E-08 alpha_mix =  0.700 |ddv_scf|^2 =  1.867E-13

      iter #  10 total cpu time :  3258.2 secs   av.it.:  18.1
      thresh= 4.321E-08 alpha_mix =  0.700 |ddv_scf|^2 =  5.745E-14

      iter #  11 total cpu time :  3294.5 secs   av.it.:  18.0
      thresh= 2.397E-08 alpha_mix =  0.700 |ddv_scf|^2 =  5.916E-15

     End of self-consistent calculation

     Convergence has been achieved 


     Representation #   4 mode #   4

     Self-consistent Calculation

      iter #   1 total cpu time :  3315.2 secs   av.it.:   8.0
      thresh= 1.000E-02 alpha_mix =  0.700 |ddv_scf|^2 =  8.952E-06

      iter #   2 total cpu time :  3350.7 secs   av.it.:  17.6
      thresh= 2.992E-04 alpha_mix =  0.700 |ddv_scf|^2 =  3.777E-06

      iter #   3 total cpu time :  3387.0 secs   av.it.:  18.0
      thresh= 1.943E-04 alpha_mix =  0.700 |ddv_scf|^2 =  1.438E-06

      iter #   4 total cpu time :  3422.4 secs   av.it.:  17.2
      thresh= 1.199E-04 alpha_mix =  0.700 |ddv_scf|^2 =  2.253E-08

      iter #   5 total cpu time :  3457.7 secs   av.it.:  17.5
      thresh= 1.501E-05 alpha_mix =  0.700 |ddv_scf|^2 =  5.740E-09

      iter #   6 total cpu time :  3493.2 secs   av.it.:  17.5
      thresh= 7.576E-06 alpha_mix =  0.700 |ddv_scf|^2 =  2.435E-11

      iter #   7 total cpu time :  3530.9 secs   av.it.:  19.0
      thresh= 4.935E-07 alpha_mix =  0.700 |ddv_scf|^2 =  1.182E-11

      iter #   8 total cpu time :  3567.7 secs   av.it.:  18.0
      thresh= 3.439E-07 alpha_mix =  0.700 |ddv_scf|^2 =  2.424E-12

      iter #   9 total cpu time :  3603.9 secs   av.it.:  18.0
      thresh= 1.557E-07 alpha_mix =  0.700 |ddv_scf|^2 =  2.995E-13

      iter #  10 total cpu time :  3641.0 secs   av.it.:  18.3
      thresh= 5.473E-08 alpha_mix =  0.700 |ddv_scf|^2 =  6.905E-14

      iter #  11 total cpu time :  3678.1 secs   av.it.:  18.0
      thresh= 2.628E-08 alpha_mix =  0.700 |ddv_scf|^2 =  2.150E-14

      iter #  12 total cpu time :  3713.4 secs   av.it.:  17.4
      thresh= 1.466E-08 alpha_mix =  0.700 |ddv_scf|^2 =  1.319E-15

     End of self-consistent calculation

     Convergence has been achieved 


     Representation #   5 mode #   5

     Self-consistent Calculation

      iter #   1 total cpu time :  3735.0 secs   av.it.:   9.0
      thresh= 1.000E-02 alpha_mix =  0.700 |ddv_scf|^2 =  2.174E-06

      iter #   2 total cpu time :  3772.1 secs   av.it.:  18.5
      thresh= 1.474E-04 alpha_mix =  0.700 |ddv_scf|^2 =  3.734E-06

      iter #   3 total cpu time :  3807.2 secs   av.it.:  17.1
      thresh= 1.932E-04 alpha_mix =  0.700 |ddv_scf|^2 =  8.406E-08

      iter #   4 total cpu time :  3843.0 secs   av.it.:  17.7
      thresh= 2.899E-05 alpha_mix =  0.700 |ddv_scf|^2 =  1.089E-09

      iter #   5 total cpu time :  3880.8 secs   av.it.:  19.0
      thresh= 3.299E-06 alpha_mix =  0.700 |ddv_scf|^2 =  7.396E-10

      iter #   6 total cpu time :  3916.4 secs   av.it.:  17.8
      thresh= 2.720E-06 alpha_mix =  0.700 |ddv_scf|^2 =  2.605E-11

      iter #   7 total cpu time :  3953.9 secs   av.it.:  18.9
      thresh= 5.104E-07 alpha_mix =  0.700 |ddv_scf|^2 =  1.098E-11

      iter #   8 total cpu time :  3990.2 secs   av.it.:  18.0
      thresh= 3.313E-07 alpha_mix =  0.700 |ddv_scf|^2 =  4.875E-13

      iter #   9 total cpu time :  4026.5 secs   av.it.:  18.0
      thresh= 6.982E-08 alpha_mix =  0.700 |ddv_scf|^2 =  8.329E-14

      iter #  10 total cpu time :  4063.1 secs   av.it.:  18.0
      thresh= 2.886E-08 alpha_mix =  0.700 |ddv_scf|^2 =  2.015E-14

      iter #  11 total cpu time :  4099.1 secs   av.it.:  18.0
      thresh= 1.420E-08 alpha_mix =  0.700 |ddv_scf|^2 =  1.352E-15

     End of self-consistent calculation

     Convergence has been achieved 


     Representation #   6 mode #   6

     Self-consistent Calculation

      iter #   1 total cpu time :  4120.1 secs   av.it.:   8.8
      thresh= 1.000E-02 alpha_mix =  0.700 |ddv_scf|^2 =  3.778E-06

      iter #   2 total cpu time :  4155.7 secs   av.it.:  17.9
      thresh= 1.944E-04 alpha_mix =  0.700 |ddv_scf|^2 =  1.106E-06

      iter #   3 total cpu time :  4191.2 secs   av.it.:  17.5
      thresh= 1.052E-04 alpha_mix =  0.700 |ddv_scf|^2 =  1.327E-07

      iter #   4 total cpu time :  4226.6 secs   av.it.:  17.6
      thresh= 3.643E-05 alpha_mix =  0.700 |ddv_scf|^2 =  1.399E-08

      iter #   5 total cpu time :  4262.2 secs   av.it.:  17.8
      thresh= 1.183E-05 alpha_mix =  0.700 |ddv_scf|^2 =  8.878E-10

      iter #   6 total cpu time :  4298.6 secs   av.it.:  18.0
      thresh= 2.980E-06 alpha_mix =  0.700 |ddv_scf|^2 =  3.781E-11

      iter #   7 total cpu time :  4335.4 secs   av.it.:  18.0
      thresh= 6.149E-07 alpha_mix =  0.700 |ddv_scf|^2 =  2.437E-11

      iter #   8 total cpu time :  4371.2 secs   av.it.:  17.9
      thresh= 4.937E-07 alpha_mix =  0.700 |ddv_scf|^2 =  8.004E-13

      iter #   9 total cpu time :  4407.8 secs   av.it.:  18.0
      thresh= 8.947E-08 alpha_mix =  0.700 |ddv_scf|^2 =  1.968E-14

      iter #  10 total cpu time :  4445.2 secs   av.it.:  18.8
      thresh= 1.403E-08 alpha_mix =  0.700 |ddv_scf|^2 =  7.113E-15

     End of self-consistent calculation

     Convergence has been achieved 


     Representation #   7 mode #   7

     Self-consistent Calculation

      iter #   1 total cpu time :  4466.5 secs   av.it.:   9.0
      thresh= 1.000E-02 alpha_mix =  0.700 |ddv_scf|^2 =  3.335E-06

      iter #   2 total cpu time :  4503.5 secs   av.it.:  18.0
      thresh= 1.826E-04 alpha_mix =  0.700 |ddv_scf|^2 =  1.437E-06

      iter #   3 total cpu time :  4539.0 secs   av.it.:  17.7
      thresh= 1.199E-04 alpha_mix =  0.700 |ddv_scf|^2 =  2.673E-07

      iter #   4 total cpu time :  4574.5 secs   av.it.:  17.6
      thresh= 5.170E-05 alpha_mix =  0.700 |ddv_scf|^2 =  1.191E-08

      iter #   5 total cpu time :  4610.1 secs   av.it.:  17.8
      thresh= 1.091E-05 alpha_mix =  0.700 |ddv_scf|^2 =  1.165E-09

      iter #   6 total cpu time :  4645.7 secs   av.it.:  17.6
      thresh= 3.414E-06 alpha_mix =  0.700 |ddv_scf|^2 =  3.091E-11

      iter #   7 total cpu time :  4684.0 secs   av.it.:  18.0
      thresh= 5.560E-07 alpha_mix =  0.700 |ddv_scf|^2 =  2.918E-12

      iter #   8 total cpu time :  4721.4 secs   av.it.:  18.7
      thresh= 1.708E-07 alpha_mix =  0.700 |ddv_scf|^2 =  1.167E-12

      iter #   9 total cpu time :  4757.2 secs   av.it.:  17.9
      thresh= 1.080E-07 alpha_mix =  0.700 |ddv_scf|^2 =  2.976E-14

      iter #  10 total cpu time :  4793.9 secs   av.it.:  18.0
      thresh= 1.725E-08 alpha_mix =  0.700 |ddv_scf|^2 =  3.697E-15

     End of self-consistent calculation

     Convergence has been achieved 


     Representation #   8 mode #   8

     Self-consistent Calculation

      iter #   1 total cpu time :  4815.6 secs   av.it.:   9.0
      thresh= 1.000E-02 alpha_mix =  0.700 |ddv_scf|^2 =  1.880E-06

      iter #   2 total cpu time :  4852.2 secs   av.it.:  18.0
      thresh= 1.371E-04 alpha_mix =  0.700 |ddv_scf|^2 =  1.896E-06

      iter #   3 total cpu time :  4887.5 secs   av.it.:  17.5
      thresh= 1.377E-04 alpha_mix =  0.700 |ddv_scf|^2 =  8.082E-08

      iter #   4 total cpu time :  4923.0 secs   av.it.:  17.7
      thresh= 2.843E-05 alpha_mix =  0.700 |ddv_scf|^2 =  5.865E-10

      iter #   5 total cpu time :  4960.4 secs   av.it.:  18.8
      thresh= 2.422E-06 alpha_mix =  0.700 |ddv_scf|^2 =  3.310E-10

      iter #   6 total cpu time :  4996.9 secs   av.it.:  18.0
      thresh= 1.819E-06 alpha_mix =  0.700 |ddv_scf|^2 =  2.885E-11

      iter #   7 total cpu time :  5033.7 secs   av.it.:  18.0
      thresh= 5.371E-07 alpha_mix =  0.700 |ddv_scf|^2 =  1.593E-11

      iter #   8 total cpu time :  5069.2 secs   av.it.:  17.7
      thresh= 3.991E-07 alpha_mix =  0.700 |ddv_scf|^2 =  2.417E-13

      iter #   9 total cpu time :  5106.9 secs   av.it.:  18.8
      thresh= 4.916E-08 alpha_mix =  0.700 |ddv_scf|^2 =  1.248E-13

      iter #  10 total cpu time :  5142.3 secs   av.it.:  17.4
      thresh= 3.532E-08 alpha_mix =  0.700 |ddv_scf|^2 =  5.844E-15

     End of self-consistent calculation

     Convergence has been achieved 


     Representation #   9 mode #   9

     Self-consistent Calculation

      iter #   1 total cpu time :  5163.2 secs   av.it.:   8.7
      thresh= 1.000E-02 alpha_mix =  0.700 |ddv_scf|^2 =  2.795E-06

      iter #   2 total cpu time :  5198.8 secs   av.it.:  17.7
      thresh= 1.672E-04 alpha_mix =  0.700 |ddv_scf|^2 =  6.885E-07

      iter #   3 total cpu time :  5234.7 secs   av.it.:  18.0
      thresh= 8.297E-05 alpha_mix =  0.700 |ddv_scf|^2 =  2.432E-07

      iter #   4 total cpu time :  5270.8 secs   av.it.:  17.3
      thresh= 4.932E-05 alpha_mix =  0.700 |ddv_scf|^2 =  7.440E-09

      iter #   5 total cpu time :  5306.1 secs   av.it.:  17.1
      thresh= 8.626E-06 alpha_mix =  0.700 |ddv_scf|^2 =  6.634E-10

      iter #   6 total cpu time :  5341.9 secs   av.it.:  17.9
      thresh= 2.576E-06 alpha_mix =  0.700 |ddv_scf|^2 =  2.907E-11

      iter #   7 total cpu time :  5377.8 secs   av.it.:  17.9
      thresh= 5.391E-07 alpha_mix =  0.700 |ddv_scf|^2 =  6.038E-12

      iter #   8 total cpu time :  5413.9 secs   av.it.:  18.0
      thresh= 2.457E-07 alpha_mix =  0.700 |ddv_scf|^2 =  4.919E-13

      iter #   9 total cpu time :  5450.6 secs   av.it.:  18.0
      thresh= 7.013E-08 alpha_mix =  0.700 |ddv_scf|^2 =  2.219E-14

      iter #  10 total cpu time :  5486.7 secs   av.it.:  18.0
      thresh= 1.490E-08 alpha_mix =  0.700 |ddv_scf|^2 =  5.914E-16

     End of self-consistent calculation

     Convergence has been achieved 


     Representation #  10 mode #  10

     Self-consistent Calculation

      iter #   1 total cpu time :  5507.3 secs   av.it.:   8.1
      thresh= 1.000E-02 alpha_mix =  0.700 |ddv_scf|^2 =  9.311E-06

      iter #   2 total cpu time :  5543.2 secs   av.it.:  18.0
      thresh= 3.051E-04 alpha_mix =  0.700 |ddv_scf|^2 =  4.331E-06

      iter #   3 total cpu time :  5579.5 secs   av.it.:  18.0
      thresh= 2.081E-04 alpha_mix =  0.700 |ddv_scf|^2 =  1.162E-06

      iter #   4 total cpu time :  5615.3 secs   av.it.:  17.9
      thresh= 1.078E-04 alpha_mix =  0.700 |ddv_scf|^2 =  3.924E-08

      iter #   5 total cpu time :  5651.0 secs   av.it.:  17.9
      thresh= 1.981E-05 alpha_mix =  0.700 |ddv_scf|^2 =  5.241E-09

      iter #   6 total cpu time :  5686.8 secs   av.it.:  17.6
      thresh= 7.239E-06 alpha_mix =  0.700 |ddv_scf|^2 =  1.122E-10

      iter #   7 total cpu time :  5723.4 secs   av.it.:  18.0
      thresh= 1.059E-06 alpha_mix =  0.700 |ddv_scf|^2 =  1.769E-11

      iter #   8 total cpu time :  5760.0 secs   av.it.:  18.0
      thresh= 4.205E-07 alpha_mix =  0.700 |ddv_scf|^2 =  7.994E-12

      iter #   9 total cpu time : 12423.3 secs   av.it.:  18.0
      thresh= 2.827E-07 alpha_mix =  0.700 |ddv_scf|^2 =  7.237E-13

      iter #  10 total cpu time : 12471.1 secs   av.it.:  18.0
      thresh= 8.507E-08 alpha_mix =  0.700 |ddv_scf|^2 =  9.802E-14

      iter #  11 total cpu time : 12515.7 secs   av.it.:  17.9
      thresh= 3.131E-08 alpha_mix =  0.700 |ddv_scf|^2 =  1.665E-15

     End of self-consistent calculation

     Convergence has been achieved 


     Representation #  11 mode #  11

     Self-consistent Calculation

      iter #   1 total cpu time : 12541.8 secs   av.it.:   9.2
      thresh= 1.000E-02 alpha_mix =  0.700 |ddv_scf|^2 =  4.441E-06

      iter #   2 total cpu time : 12579.5 secs   av.it.:  18.2
      thresh= 2.107E-04 alpha_mix =  0.700 |ddv_scf|^2 =  2.283E-06

      iter #   3 total cpu time : 12616.3 secs   av.it.:  18.0
      thresh= 1.511E-04 alpha_mix =  0.700 |ddv_scf|^2 =  3.426E-07

      iter #   4 total cpu time : 12651.7 secs   av.it.:  17.6
      thresh= 5.853E-05 alpha_mix =  0.700 |ddv_scf|^2 =  1.631E-08

      iter #   5 total cpu time : 12688.1 secs   av.it.:  18.0
      thresh= 1.277E-05 alpha_mix =  0.700 |ddv_scf|^2 =  1.135E-09

      iter #   6 total cpu time : 12725.0 secs   av.it.:  18.0
      thresh= 3.369E-06 alpha_mix =  0.700 |ddv_scf|^2 =  1.127E-10

      iter #   7 total cpu time : 12760.7 secs   av.it.:  17.9
      thresh= 1.062E-06 alpha_mix =  0.700 |ddv_scf|^2 =  2.789E-11

      iter #   8 total cpu time : 12797.2 secs   av.it.:  18.0
      thresh= 5.281E-07 alpha_mix =  0.700 |ddv_scf|^2 =  8.381E-13

      iter #   9 total cpu time : 12833.9 secs   av.it.:  18.0
      thresh= 9.155E-08 alpha_mix =  0.700 |ddv_scf|^2 =  4.430E-14

      iter #  10 total cpu time : 12871.8 secs   av.it.:  18.8
      thresh= 2.105E-08 alpha_mix =  0.700 |ddv_scf|^2 =  2.562E-14

      iter #  11 total cpu time : 12907.8 secs   av.it.:  18.0
      thresh= 1.600E-08 alpha_mix =  0.700 |ddv_scf|^2 =  3.819E-15

     End of self-consistent calculation

     Convergence has been achieved 


     Representation #  12 mode #  12

     Self-consistent Calculation

      iter #   1 total cpu time : 12930.3 secs   av.it.:   9.2
      thresh= 1.000E-02 alpha_mix =  0.700 |ddv_scf|^2 =  4.704E-06

      iter #   2 total cpu time : 12967.0 secs   av.it.:  18.0
      thresh= 2.169E-04 alpha_mix =  0.700 |ddv_scf|^2 =  2.385E-06

      iter #   3 total cpu time : 13003.2 secs   av.it.:  18.0
      thresh= 1.544E-04 alpha_mix =  0.700 |ddv_scf|^2 =  3.281E-07

      iter #   4 total cpu time : 13039.0 secs   av.it.:  17.8
      thresh= 5.728E-05 alpha_mix =  0.700 |ddv_scf|^2 =  9.806E-09

      iter #   5 total cpu time : 13075.4 secs   av.it.:  18.0
      thresh= 9.903E-06 alpha_mix =  0.700 |ddv_scf|^2 =  9.091E-10

      iter #   6 total cpu time : 13112.3 secs   av.it.:  18.0
      thresh= 3.015E-06 alpha_mix =  0.700 |ddv_scf|^2 =  1.840E-10

      iter #   7 total cpu time : 13148.2 secs   av.it.:  18.0
      thresh= 1.357E-06 alpha_mix =  0.700 |ddv_scf|^2 =  2.670E-11

      iter #   8 total cpu time : 13183.7 secs   av.it.:  17.9
      thresh= 5.167E-07 alpha_mix =  0.700 |ddv_scf|^2 =  1.531E-12

      iter #   9 total cpu time : 13221.1 secs   av.it.:  18.7
      thresh= 1.237E-07 alpha_mix =  0.700 |ddv_scf|^2 =  4.121E-13

      iter #  10 total cpu time : 13258.5 secs   av.it.:  18.9
      thresh= 6.420E-08 alpha_mix =  0.700 |ddv_scf|^2 =  1.668E-13

      iter #  11 total cpu time : 13304.3 secs   av.it.:  18.1
      thresh= 4.084E-08 alpha_mix =  0.700 |ddv_scf|^2 =  4.133E-14

      iter #  12 total cpu time : 13343.2 secs   av.it.:  17.1
      thresh= 2.033E-08 alpha_mix =  0.700 |ddv_scf|^2 =  1.460E-15

     End of self-consistent calculation

     Convergence has been achieved 


     Representation #  13 mode #  13

     Self-consistent Calculation

      iter #   1 total cpu time : 13364.3 secs   av.it.:   9.0
      thresh= 1.000E-02 alpha_mix =  0.700 |ddv_scf|^2 =  1.753E-06

      iter #   2 total cpu time : 13401.2 secs   av.it.:  18.1
      thresh= 1.324E-04 alpha_mix =  0.700 |ddv_scf|^2 =  2.423E-06

      iter #   3 total cpu time : 13436.3 secs   av.it.:  17.1
      thresh= 1.557E-04 alpha_mix =  0.700 |ddv_scf|^2 =  8.763E-08

      iter #   4 total cpu time : 13471.1 secs   av.it.:  17.0
      thresh= 2.960E-05 alpha_mix =  0.700 |ddv_scf|^2 =  1.870E-09

      iter #   5 total cpu time : 13507.8 secs   av.it.:  18.0
      thresh= 4.324E-06 alpha_mix =  0.700 |ddv_scf|^2 =  7.138E-10

      iter #   6 total cpu time : 13543.2 secs   av.it.:  17.6
      thresh= 2.672E-06 alpha_mix =  0.700 |ddv_scf|^2 =  7.843E-12

      iter #   7 total cpu time : 13580.3 secs   av.it.:  18.4
      thresh= 2.801E-07 alpha_mix =  0.700 |ddv_scf|^2 =  5.327E-12

      iter #   8 total cpu time : 13616.3 secs   av.it.:  18.0
      thresh= 2.308E-07 alpha_mix =  0.700 |ddv_scf|^2 =  3.857E-13

      iter #   9 total cpu time : 13653.8 secs   av.it.:  18.9
      thresh= 6.211E-08 alpha_mix =  0.700 |ddv_scf|^2 =  3.065E-13

      iter #  10 total cpu time : 13689.2 secs   av.it.:  17.5
      thresh= 5.536E-08 alpha_mix =  0.700 |ddv_scf|^2 =  7.860E-15

     End of self-consistent calculation

     Convergence has been achieved 


     Representation #  14 mode #  14

     Self-consistent Calculation

      iter #   1 total cpu time : 13708.8 secs   av.it.:   8.0
      thresh= 1.000E-02 alpha_mix =  0.700 |ddv_scf|^2 =  6.409E-06

      iter #   2 total cpu time : 13743.7 secs   av.it.:  17.0
      thresh= 2.532E-04 alpha_mix =  0.700 |ddv_scf|^2 =  1.128E-06

      iter #   3 total cpu time : 13780.7 secs   av.it.:  18.1
      thresh= 1.062E-04 alpha_mix =  0.700 |ddv_scf|^2 =  6.497E-07

      iter #   4 total cpu time : 13816.0 secs   av.it.:  17.6
      thresh= 8.061E-05 alpha_mix =  0.700 |ddv_scf|^2 =  2.294E-08

      iter #   5 total cpu time : 13851.5 secs   av.it.:  17.8
      thresh= 1.515E-05 alpha_mix =  0.700 |ddv_scf|^2 =  2.831E-09

      iter #   6 total cpu time : 13887.2 secs   av.it.:  17.9
      thresh= 5.321E-06 alpha_mix =  0.700 |ddv_scf|^2 =  1.259E-10

      iter #   7 total cpu time : 13923.9 secs   av.it.:  18.0
      thresh= 1.122E-06 alpha_mix =  0.700 |ddv_scf|^2 =  1.123E-11

      iter #   8 total cpu time : 13960.9 secs   av.it.:  18.2
      thresh= 3.351E-07 alpha_mix =  0.700 |ddv_scf|^2 =  6.507E-12

      iter #   9 total cpu time : 13996.9 secs   av.it.:  18.0
      thresh= 2.551E-07 alpha_mix =  0.700 |ddv_scf|^2 =  4.653E-13

      iter #  10 total cpu time : 14033.2 secs   av.it.:  18.0
      thresh= 6.821E-08 alpha_mix =  0.700 |ddv_scf|^2 =  2.835E-14

      iter #  11 total cpu time : 14069.0 secs   av.it.:  18.0
      thresh= 1.684E-08 alpha_mix =  0.700 |ddv_scf|^2 =  2.532E-15

     End of self-consistent calculation

     Convergence has been achieved 


     Representation #  15 mode #  15

     Self-consistent Calculation

      iter #   1 total cpu time : 14090.2 secs   av.it.:   9.0
      thresh= 1.000E-02 alpha_mix =  0.700 |ddv_scf|^2 =  1.570E-06

      iter #   2 total cpu time : 14126.5 secs   av.it.:  18.0
      thresh= 1.253E-04 alpha_mix =  0.700 |ddv_scf|^2 =  5.969E-07

      iter #   3 total cpu time : 14162.6 secs   av.it.:  18.0
      thresh= 7.726E-05 alpha_mix =  0.700 |ddv_scf|^2 =  7.036E-08

      iter #   4 total cpu time : 14199.3 secs   av.it.:  18.0
      thresh= 2.653E-05 alpha_mix =  0.700 |ddv_scf|^2 =  1.332E-08

      iter #   5 total cpu time : 14234.9 secs   av.it.:  17.3
      thresh= 1.154E-05 alpha_mix =  0.700 |ddv_scf|^2 =  7.037E-10

      iter #   6 total cpu time : 14271.2 secs   av.it.:  18.0
      thresh= 2.653E-06 alpha_mix =  0.700 |ddv_scf|^2 =  3.991E-11

      iter #   7 total cpu time : 14308.0 secs   av.it.:  18.1
      thresh= 6.317E-07 alpha_mix =  0.700 |ddv_scf|^2 =  2.758E-11

      iter #   8 total cpu time : 14343.5 secs   av.it.:  17.8
      thresh= 5.251E-07 alpha_mix =  0.700 |ddv_scf|^2 =  1.172E-12

      iter #   9 total cpu time : 14380.5 secs   av.it.:  18.1
      thresh= 1.083E-07 alpha_mix =  0.700 |ddv_scf|^2 =  1.263E-13

      iter #  10 total cpu time : 14417.5 secs   av.it.:  18.2
      thresh= 3.554E-08 alpha_mix =  0.700 |ddv_scf|^2 =  5.578E-14

      iter #  11 total cpu time : 14454.5 secs   av.it.:  18.2
      thresh= 2.362E-08 alpha_mix =  0.700 |ddv_scf|^2 =  1.219E-14

      iter #  12 total cpu time : 14491.1 secs   av.it.:  18.0
      thresh= 1.104E-08 alpha_mix =  0.700 |ddv_scf|^2 =  1.683E-15

     End of self-consistent calculation

     Convergence has been achieved 


     Representation #  16 mode #  16

     Self-consistent Calculation

      iter #   1 total cpu time : 14513.0 secs   av.it.:   9.0
      thresh= 1.000E-02 alpha_mix =  0.700 |ddv_scf|^2 =  3.776E-06

      iter #   2 total cpu time : 14550.1 secs   av.it.:  18.1
      thresh= 1.943E-04 alpha_mix =  0.700 |ddv_scf|^2 =  2.191E-06

      iter #   3 total cpu time : 14586.1 secs   av.it.:  18.0
      thresh= 1.480E-04 alpha_mix =  0.700 |ddv_scf|^2 =  3.795E-07

      iter #   4 total cpu time : 14621.5 secs   av.it.:  17.7
      thresh= 6.161E-05 alpha_mix =  0.700 |ddv_scf|^2 =  9.530E-09

      iter #   5 total cpu time : 14657.6 secs   av.it.:  18.0
      thresh= 9.762E-06 alpha_mix =  0.700 |ddv_scf|^2 =  1.086E-09

      iter #   6 total cpu time : 14693.7 secs   av.it.:  18.0
      thresh= 3.295E-06 alpha_mix =  0.700 |ddv_scf|^2 =  9.116E-11

      iter #   7 total cpu time : 14730.2 secs   av.it.:  18.0
      thresh= 9.548E-07 alpha_mix =  0.700 |ddv_scf|^2 =  2.372E-11

      iter #   8 total cpu time : 14765.8 secs   av.it.:  17.9
      thresh= 4.870E-07 alpha_mix =  0.700 |ddv_scf|^2 =  8.311E-13

      iter #   9 total cpu time : 14803.4 secs   av.it.:  19.0
      thresh= 9.116E-08 alpha_mix =  0.700 |ddv_scf|^2 =  7.436E-14

      iter #  10 total cpu time : 14840.7 secs   av.it.:  18.6
      thresh= 2.727E-08 alpha_mix =  0.700 |ddv_scf|^2 =  1.857E-14

      iter #  11 total cpu time : 14877.4 secs   av.it.:  18.0
      thresh= 1.363E-08 alpha_mix =  0.700 |ddv_scf|^2 =  2.586E-15

     End of self-consistent calculation

     Convergence has been achieved 


     Representation #  17 mode #  17

     Self-consistent Calculation

      iter #   1 total cpu time : 14901.9 secs   av.it.:  10.0
      thresh= 1.000E-02 alpha_mix =  0.700 |ddv_scf|^2 =  5.491E-06

      iter #   2 total cpu time : 14939.8 secs   av.it.:  18.8
      thresh= 2.343E-04 alpha_mix =  0.700 |ddv_scf|^2 =  4.061E-06

      iter #   3 total cpu time : 14975.8 secs   av.it.:  18.0
      thresh= 2.015E-04 alpha_mix =  0.700 |ddv_scf|^2 =  3.979E-07

      iter #   4 total cpu time : 15011.2 secs   av.it.:  17.7
      thresh= 6.308E-05 alpha_mix =  0.700 |ddv_scf|^2 =  1.488E-08

      iter #   5 total cpu time : 15047.6 secs   av.it.:  18.0
      thresh= 1.220E-05 alpha_mix =  0.700 |ddv_scf|^2 =  1.372E-09

      iter #   6 total cpu time : 15084.3 secs   av.it.:  18.0
      thresh= 3.704E-06 alpha_mix =  0.700 |ddv_scf|^2 =  2.562E-10

      iter #   7 total cpu time : 15120.2 secs   av.it.:  18.0
      thresh= 1.601E-06 alpha_mix =  0.700 |ddv_scf|^2 =  1.379E-11

      iter #   8 total cpu time : 15157.2 secs   av.it.:  18.2
      thresh= 3.713E-07 alpha_mix =  0.700 |ddv_scf|^2 =  8.267E-13

      iter #   9 total cpu time : 15194.7 secs   av.it.:  18.9
      thresh= 9.092E-08 alpha_mix =  0.700 |ddv_scf|^2 =  1.776E-13

      iter #  10 total cpu time : 15232.0 secs   av.it.:  18.7
      thresh= 4.215E-08 alpha_mix =  0.700 |ddv_scf|^2 =  1.839E-13

      iter #  11 total cpu time : 15267.4 secs   av.it.:  17.8
      thresh= 4.288E-08 alpha_mix =  0.700 |ddv_scf|^2 =  1.739E-14

      iter #  12 total cpu time : 15303.2 secs   av.it.:  18.0
      thresh= 1.319E-08 alpha_mix =  0.700 |ddv_scf|^2 =  1.564E-15

     End of self-consistent calculation

     Convergence has been achieved 


     Representation #  18 mode #  18

     Self-consistent Calculation

      iter #   1 total cpu time : 15324.5 secs   av.it.:   9.0
      thresh= 1.000E-02 alpha_mix =  0.700 |ddv_scf|^2 =  3.324E-06

      iter #   2 total cpu time : 15361.4 secs   av.it.:  18.1
      thresh= 1.823E-04 alpha_mix =  0.700 |ddv_scf|^2 =  3.752E-06

      iter #   3 total cpu time : 15396.1 secs   av.it.:  17.0
      thresh= 1.937E-04 alpha_mix =  0.700 |ddv_scf|^2 =  2.170E-07

      iter #   4 total cpu time : 15432.1 secs   av.it.:  18.0
      thresh= 4.658E-05 alpha_mix =  0.700 |ddv_scf|^2 =  1.262E-08

      iter #   5 total cpu time : 15469.1 secs   av.it.:  18.0
      thresh= 1.124E-05 alpha_mix =  0.700 |ddv_scf|^2 =  1.331E-09

      iter #   6 total cpu time : 15504.6 secs   av.it.:  17.7
      thresh= 3.648E-06 alpha_mix =  0.700 |ddv_scf|^2 =  1.383E-10

      iter #   7 total cpu time : 15541.1 secs   av.it.:  18.0
      thresh= 1.176E-06 alpha_mix =  0.700 |ddv_scf|^2 =  2.098E-11

      iter #   8 total cpu time : 15576.8 secs   av.it.:  17.9
      thresh= 4.580E-07 alpha_mix =  0.700 |ddv_scf|^2 =  1.400E-12

      iter #   9 total cpu time : 15614.8 secs   av.it.:  19.0
      thresh= 1.183E-07 alpha_mix =  0.700 |ddv_scf|^2 =  7.315E-13

      iter #  10 total cpu time : 15651.5 secs   av.it.:  18.0
      thresh= 8.553E-08 alpha_mix =  0.700 |ddv_scf|^2 =  3.338E-13

      iter #  11 total cpu time : 15686.7 secs   av.it.:  17.2
      thresh= 5.777E-08 alpha_mix =  0.700 |ddv_scf|^2 =  1.591E-14

      iter #  12 total cpu time : 15724.0 secs   av.it.:  18.8
      thresh= 1.261E-08 alpha_mix =  0.700 |ddv_scf|^2 =  6.814E-15

     End of self-consistent calculation

     Convergence has been achieved 


     Representation #  19 mode #  19

     Self-consistent Calculation

      iter #   1 total cpu time : 15746.7 secs   av.it.:   9.2
      thresh= 1.000E-02 alpha_mix =  0.700 |ddv_scf|^2 =  3.908E-06

      iter #   2 total cpu time : 15783.7 secs   av.it.:  18.2
      thresh= 1.977E-04 alpha_mix =  0.700 |ddv_scf|^2 =  2.018E-06

      iter #   3 total cpu time : 15819.5 secs   av.it.:  18.0
      thresh= 1.421E-04 alpha_mix =  0.700 |ddv_scf|^2 =  2.579E-07

      iter #   4 total cpu time : 15855.7 secs   av.it.:  18.0
      thresh= 5.078E-05 alpha_mix =  0.700 |ddv_scf|^2 =  4.211E-08

      iter #   5 total cpu time : 15891.0 secs   av.it.:  17.3
      thresh= 2.052E-05 alpha_mix =  0.700 |ddv_scf|^2 =  2.372E-09

      iter #   6 total cpu time : 15928.0 secs   av.it.:  18.2
      thresh= 4.870E-06 alpha_mix =  0.700 |ddv_scf|^2 =  2.648E-10

      iter #   7 total cpu time : 15963.9 secs   av.it.:  17.9
      thresh= 1.627E-06 alpha_mix =  0.700 |ddv_scf|^2 =  2.013E-11

      iter #   8 total cpu time : 16001.2 secs   av.it.:  18.8
      thresh= 4.486E-07 alpha_mix =  0.700 |ddv_scf|^2 =  7.864E-12

      iter #   9 total cpu time : 16038.4 secs   av.it.:  18.0
      thresh= 2.804E-07 alpha_mix =  0.700 |ddv_scf|^2 =  4.955E-13

      iter #  10 total cpu time : 16076.4 secs   av.it.:  19.0
      thresh= 7.039E-08 alpha_mix =  0.700 |ddv_scf|^2 =  6.350E-13

      iter #  11 total cpu time : 16112.3 secs   av.it.:  18.0
      thresh= 7.969E-08 alpha_mix =  0.700 |ddv_scf|^2 =  9.464E-14

      iter #  12 total cpu time : 16148.1 secs   av.it.:  17.9
      thresh= 3.076E-08 alpha_mix =  0.700 |ddv_scf|^2 =  6.868E-15

     End of self-consistent calculation

     Convergence has been achieved 


     Representation #  20 mode #  20

     Self-consistent Calculation

      iter #   1 total cpu time : 16168.5 secs   av.it.:   8.0
      thresh= 1.000E-02 alpha_mix =  0.700 |ddv_scf|^2 =  5.826E-06

      iter #   2 total cpu time : 58732.0 secs   av.it.:  17.9
      thresh= 2.414E-04 alpha_mix =  0.700 |ddv_scf|^2 =  1.163E-06

      iter #   3 total cpu time : 58798.9 secs   av.it.:  19.0
      thresh= 1.078E-04 alpha_mix =  0.700 |ddv_scf|^2 =  1.223E-06

      iter #   4 total cpu time : 58858.1 secs   av.it.:  17.8
      thresh= 1.106E-04 alpha_mix =  0.700 |ddv_scf|^2 =  3.881E-08

      iter #   5 total cpu time : 58893.7 secs   av.it.:  17.6
      thresh= 1.970E-05 alpha_mix =  0.700 |ddv_scf|^2 =  2.343E-09

      iter #   6 total cpu time : 58929.3 secs   av.it.:  17.7
      thresh= 4.841E-06 alpha_mix =  0.700 |ddv_scf|^2 =  3.379E-11

      iter #   7 total cpu time : 58965.3 secs   av.it.:  18.0
      thresh= 5.813E-07 alpha_mix =  0.700 |ddv_scf|^2 =  6.052E-12

      iter #   8 total cpu time : 59001.0 secs   av.it.:  17.9
      thresh= 2.460E-07 alpha_mix =  0.700 |ddv_scf|^2 =  9.241E-13

      iter #   9 total cpu time : 59038.4 secs   av.it.:  19.0
      thresh= 9.613E-08 alpha_mix =  0.700 |ddv_scf|^2 =  1.325E-13

      iter #  10 total cpu time : 59075.5 secs   av.it.:  18.2
      thresh= 3.640E-08 alpha_mix =  0.700 |ddv_scf|^2 =  5.902E-14

      iter #  11 total cpu time : 59112.3 secs   av.it.:  18.0
      thresh= 2.429E-08 alpha_mix =  0.700 |ddv_scf|^2 =  2.639E-14

      iter #  12 total cpu time : 59147.6 secs   av.it.:  17.3
      thresh= 1.624E-08 alpha_mix =  0.700 |ddv_scf|^2 =  4.100E-16

     End of self-consistent calculation

     Convergence has been achieved 


     Representation #  21 mode #  21

     Self-consistent Calculation

      iter #   1 total cpu time : 59172.6 secs   av.it.:   9.6
      thresh= 1.000E-02 alpha_mix =  0.700 |ddv_scf|^2 =  3.898E-06

      iter #   2 total cpu time : 59216.0 secs   av.it.:  18.4
      thresh= 1.974E-04 alpha_mix =  0.700 |ddv_scf|^2 =  2.389E-06

      iter #   3 total cpu time : 59252.0 secs   av.it.:  17.9
      thresh= 1.546E-04 alpha_mix =  0.700 |ddv_scf|^2 =  2.224E-07

      iter #   4 total cpu time : 59288.4 secs   av.it.:  18.0
      thresh= 4.716E-05 alpha_mix =  0.700 |ddv_scf|^2 =  4.276E-08

      iter #   5 total cpu time : 59323.8 secs   av.it.:  17.4
      thresh= 2.068E-05 alpha_mix =  0.700 |ddv_scf|^2 =  2.905E-09

      iter #   6 total cpu time : 59360.9 secs   av.it.:  18.0
      thresh= 5.390E-06 alpha_mix =  0.700 |ddv_scf|^2 =  2.390E-10

      iter #   7 total cpu time : 59396.8 secs   av.it.:  18.0
      thresh= 1.546E-06 alpha_mix =  0.700 |ddv_scf|^2 =  2.363E-11

      iter #   8 total cpu time : 59434.1 secs   av.it.:  18.4
      thresh= 4.861E-07 alpha_mix =  0.700 |ddv_scf|^2 =  4.923E-12

      iter #   9 total cpu time : 59470.2 secs   av.it.:  18.0
      thresh= 2.219E-07 alpha_mix =  0.700 |ddv_scf|^2 =  7.578E-14

      iter #  10 total cpu time : 59508.4 secs   av.it.:  19.0
      thresh= 2.753E-08 alpha_mix =  0.700 |ddv_scf|^2 =  3.127E-14

      iter #  11 total cpu time : 59545.3 secs   av.it.:  18.0
      thresh= 1.768E-08 alpha_mix =  0.700 |ddv_scf|^2 =  1.530E-14

      iter #  12 total cpu time : 59581.0 secs   av.it.:  17.2
      thresh= 1.237E-08 alpha_mix =  0.700 |ddv_scf|^2 =  6.559E-16

     End of self-consistent calculation

     Convergence has been achieved 


     Representation #  22 mode #  22

     Self-consistent Calculation

      iter #   1 total cpu time : 59603.3 secs   av.it.:   9.1
      thresh= 1.000E-02 alpha_mix =  0.700 |ddv_scf|^2 =  6.876E-06

      iter #   2 total cpu time : 59639.3 secs   av.it.:  17.9
      thresh= 2.622E-04 alpha_mix =  0.700 |ddv_scf|^2 =  4.048E-06

      iter #   3 total cpu time : 59673.9 secs   av.it.:  17.0
      thresh= 2.012E-04 alpha_mix =  0.700 |ddv_scf|^2 =  1.299E-07

      iter #   4 total cpu time : 59711.0 secs   av.it.:  18.1
      thresh= 3.605E-05 alpha_mix =  0.700 |ddv_scf|^2 =  4.597E-08

      iter #   5 total cpu time : 59746.6 secs   av.it.:  17.0
      thresh= 2.144E-05 alpha_mix =  0.700 |ddv_scf|^2 =  1.896E-09

      iter #   6 total cpu time : 59791.8 secs   av.it.:  18.1
      thresh= 4.355E-06 alpha_mix =  0.700 |ddv_scf|^2 =  2.353E-10

      iter #   7 total cpu time : 59830.2 secs   av.it.:  17.9
      thresh= 1.534E-06 alpha_mix =  0.700 |ddv_scf|^2 =  2.064E-11

      iter #   8 total cpu time : 59869.3 secs   av.it.:  18.7
      thresh= 4.543E-07 alpha_mix =  0.700 |ddv_scf|^2 =  7.088E-12

      iter #   9 total cpu time : 59909.4 secs   av.it.:  18.0
      thresh= 2.662E-07 alpha_mix =  0.700 |ddv_scf|^2 =  3.032E-13

      iter #  10 total cpu time : 59949.8 secs   av.it.:  18.0
      thresh= 5.507E-08 alpha_mix =  0.700 |ddv_scf|^2 =  1.825E-13

      iter #  11 total cpu time : 59989.4 secs   av.it.:  18.0
      thresh= 4.272E-08 alpha_mix =  0.700 |ddv_scf|^2 =  1.393E-13

      iter #  12 total cpu time : 60026.0 secs   av.it.:  17.0
      thresh= 3.733E-08 alpha_mix =  0.700 |ddv_scf|^2 =  3.212E-15

     End of self-consistent calculation

     Convergence has been achieved 


     Representation #  23 mode #  23

     Self-consistent Calculation

      iter #   1 total cpu time : 60047.6 secs   av.it.:   7.8
      thresh= 1.000E-02 alpha_mix =  0.700 |ddv_scf|^2 =  4.880E-06

      iter #   2 total cpu time : 60084.3 secs   av.it.:  17.1
      thresh= 2.209E-04 alpha_mix =  0.700 |ddv_scf|^2 =  3.927E-07

      iter #   3 total cpu time : 60127.5 secs   av.it.:  19.2
      thresh= 6.267E-05 alpha_mix =  0.700 |ddv_scf|^2 =  7.263E-07

      iter #   4 total cpu time : 60168.0 secs   av.it.:  17.9
      thresh= 8.522E-05 alpha_mix =  0.700 |ddv_scf|^2 =  2.097E-08

      iter #   5 total cpu time : 60211.8 secs   av.it.:  17.9
      thresh= 1.448E-05 alpha_mix =  0.700 |ddv_scf|^2 =  3.094E-09

      iter #   6 total cpu time : 60249.4 secs   av.it.:  18.0
      thresh= 5.562E-06 alpha_mix =  0.700 |ddv_scf|^2 =  1.344E-10

      iter #   7 total cpu time : 60286.3 secs   av.it.:  18.0
      thresh= 1.159E-06 alpha_mix =  0.700 |ddv_scf|^2 =  1.997E-11

      iter #   8 total cpu time : 60324.1 secs   av.it.:  18.0
      thresh= 4.469E-07 alpha_mix =  0.700 |ddv_scf|^2 =  1.341E-12

      iter #   9 total cpu time : 60364.5 secs   av.it.:  19.0
      thresh= 1.158E-07 alpha_mix =  0.700 |ddv_scf|^2 =  3.985E-13

      iter #  10 total cpu time : 60409.0 secs   av.it.:  18.5
      thresh= 6.312E-08 alpha_mix =  0.700 |ddv_scf|^2 =  1.870E-13

      iter #  11 total cpu time : 60446.2 secs   av.it.:  17.1
      thresh= 4.324E-08 alpha_mix =  0.700 |ddv_scf|^2 =  1.996E-15

     End of self-consistent calculation

     Convergence has been achieved 


     Representation #  24 mode #  24

     Self-consistent Calculation

      iter #   1 total cpu time : 60475.0 secs   av.it.:   9.0
      thresh= 1.000E-02 alpha_mix =  0.700 |ddv_scf|^2 =  4.188E-06

      iter #   2 total cpu time : 60514.3 secs   av.it.:  18.0
      thresh= 2.047E-04 alpha_mix =  0.700 |ddv_scf|^2 =  2.703E-06

      iter #   3 total cpu time : 60551.7 secs   av.it.:  17.6
      thresh= 1.644E-04 alpha_mix =  0.700 |ddv_scf|^2 =  5.304E-07

      iter #   4 total cpu time : 60587.3 secs   av.it.:  17.3
      thresh= 7.283E-05 alpha_mix =  0.700 |ddv_scf|^2 =  5.254E-08

      iter #   5 total cpu time : 60624.1 secs   av.it.:  17.2
      thresh= 2.292E-05 alpha_mix =  0.700 |ddv_scf|^2 =  1.912E-09

      iter #   6 total cpu time : 60664.7 secs   av.it.:  18.2
      thresh= 4.373E-06 alpha_mix =  0.700 |ddv_scf|^2 =  4.215E-10

      iter #   7 total cpu time : 60702.8 secs   av.it.:  17.2
      thresh= 2.053E-06 alpha_mix =  0.700 |ddv_scf|^2 =  1.591E-11

      iter #   8 total cpu time : 60742.6 secs   av.it.:  18.9
      thresh= 3.989E-07 alpha_mix =  0.700 |ddv_scf|^2 =  7.054E-12

      iter #   9 total cpu time : 60781.2 secs   av.it.:  18.0
      thresh= 2.656E-07 alpha_mix =  0.700 |ddv_scf|^2 =  7.643E-13

      iter #  10 total cpu time : 60818.9 secs   av.it.:  17.0
      thresh= 8.742E-08 alpha_mix =  0.700 |ddv_scf|^2 =  3.144E-14

      iter #  11 total cpu time : 60860.1 secs   av.it.:  19.0
      thresh= 1.773E-08 alpha_mix =  0.700 |ddv_scf|^2 =  5.729E-14

      iter #  12 total cpu time : 60899.3 secs   av.it.:  17.3
      thresh= 2.394E-08 alpha_mix =  0.700 |ddv_scf|^2 =  1.359E-15

     End of self-consistent calculation

     Convergence has been achieved 


     Representation #  25 mode #  25

     Self-consistent Calculation

      iter #   1 total cpu time : 60922.5 secs   av.it.:   9.0
      thresh= 1.000E-02 alpha_mix =  0.700 |ddv_scf|^2 =  2.541E-06

      iter #   2 total cpu time : 60963.7 secs   av.it.:  18.0
      thresh= 1.594E-04 alpha_mix =  0.700 |ddv_scf|^2 =  8.750E-07

      iter #   3 total cpu time : 61003.1 secs   av.it.:  18.0
      thresh= 9.354E-05 alpha_mix =  0.700 |ddv_scf|^2 =  1.120E-07

      iter #   4 total cpu time : 61044.9 secs   av.it.:  18.0
      thresh= 3.347E-05 alpha_mix =  0.700 |ddv_scf|^2 =  8.873E-09

      iter #   5 total cpu time : 61087.4 secs   av.it.:  18.0
      thresh= 9.420E-06 alpha_mix =  0.700 |ddv_scf|^2 =  1.011E-09

      iter #   6 total cpu time : 61127.7 secs   av.it.:  18.0
      thresh= 3.180E-06 alpha_mix =  0.700 |ddv_scf|^2 =  2.066E-10

      iter #   7 total cpu time : 61166.0 secs   av.it.:  17.9
      thresh= 1.437E-06 alpha_mix =  0.700 |ddv_scf|^2 =  2.424E-11

      iter #   8 total cpu time : 61206.1 secs   av.it.:  18.0
      thresh= 4.924E-07 alpha_mix =  0.700 |ddv_scf|^2 =  9.299E-12

      iter #   9 total cpu time : 61243.4 secs   av.it.:  18.0
      thresh= 3.049E-07 alpha_mix =  0.700 |ddv_scf|^2 =  1.722E-13

      iter #  10 total cpu time : 61281.5 secs   av.it.:  19.0
      thresh= 4.150E-08 alpha_mix =  0.700 |ddv_scf|^2 =  9.030E-14

      iter #  11 total cpu time : 61320.1 secs   av.it.:  18.0
      thresh= 3.005E-08 alpha_mix =  0.700 |ddv_scf|^2 =  1.270E-14

      iter #  12 total cpu time : 61357.6 secs   av.it.:  18.4
      thresh= 1.127E-08 alpha_mix =  0.700 |ddv_scf|^2 =  4.820E-15

     End of self-consistent calculation

     Convergence has been achieved 


     Representation #  26 mode #  26

     Self-consistent Calculation

      iter #   1 total cpu time : 61378.7 secs   av.it.:   8.8
      thresh= 1.000E-02 alpha_mix =  0.700 |ddv_scf|^2 =  6.785E-07

      iter #   2 total cpu time : 61417.1 secs   av.it.:  19.0
      thresh= 8.237E-05 alpha_mix =  0.700 |ddv_scf|^2 =  1.137E-06

      iter #   3 total cpu time : 61452.9 secs   av.it.:  17.9
      thresh= 1.066E-04 alpha_mix =  0.700 |ddv_scf|^2 =  8.143E-08

      iter #   4 total cpu time : 61488.3 secs   av.it.:  17.3
      thresh= 2.854E-05 alpha_mix =  0.700 |ddv_scf|^2 =  8.256E-09

      iter #   5 total cpu time : 61527.6 secs   av.it.:  18.0
      thresh= 9.086E-06 alpha_mix =  0.700 |ddv_scf|^2 =  3.893E-10

      iter #   6 total cpu time : 61565.7 secs   av.it.:  18.0
      thresh= 1.973E-06 alpha_mix =  0.700 |ddv_scf|^2 =  4.642E-11

      iter #   7 total cpu time : 61603.4 secs   av.it.:  18.0
      thresh= 6.813E-07 alpha_mix =  0.700 |ddv_scf|^2 =  8.421E-12

      iter #   8 total cpu time : 61646.1 secs   av.it.:  18.0
      thresh= 2.902E-07 alpha_mix =  0.700 |ddv_scf|^2 =  6.778E-13

      iter #   9 total cpu time : 61694.7 secs   av.it.:  18.3
      thresh= 8.233E-08 alpha_mix =  0.700 |ddv_scf|^2 =  1.214E-13

      iter #  10 total cpu time : 61737.6 secs   av.it.:  18.0
      thresh= 3.484E-08 alpha_mix =  0.700 |ddv_scf|^2 =  8.259E-14

      iter #  11 total cpu time : 61774.6 secs   av.it.:  17.8
      thresh= 2.874E-08 alpha_mix =  0.700 |ddv_scf|^2 =  7.382E-15

     End of self-consistent calculation

     Convergence has been achieved 


     Representation #  27 mode #  27

     Self-consistent Calculation

      iter #   1 total cpu time : 61796.0 secs   av.it.:   8.0
      thresh= 1.000E-02 alpha_mix =  0.700 |ddv_scf|^2 =  4.864E-06

      iter #   2 total cpu time : 61831.4 secs   av.it.:  17.2
      thresh= 2.205E-04 alpha_mix =  0.700 |ddv_scf|^2 =  5.629E-07

      iter #   3 total cpu time : 61870.0 secs   av.it.:  19.0
      thresh= 7.503E-05 alpha_mix =  0.700 |ddv_scf|^2 =  7.623E-07

      iter #   4 total cpu time : 61906.1 secs   av.it.:  17.9
      thresh= 8.731E-05 alpha_mix =  0.700 |ddv_scf|^2 =  2.335E-08

      iter #   5 total cpu time : 61942.3 secs   av.it.:  18.0
      thresh= 1.528E-05 alpha_mix =  0.700 |ddv_scf|^2 =  4.280E-09

      iter #   6 total cpu time : 61978.5 secs   av.it.:  18.0
      thresh= 6.542E-06 alpha_mix =  0.700 |ddv_scf|^2 =  1.105E-10

      iter #   7 total cpu time : 62014.4 secs   av.it.:  17.7
      thresh= 1.051E-06 alpha_mix =  0.700 |ddv_scf|^2 =  1.176E-11

      iter #   8 total cpu time : 62050.3 secs   av.it.:  17.9
      thresh= 3.430E-07 alpha_mix =  0.700 |ddv_scf|^2 =  1.279E-12

      iter #   9 total cpu time : 62088.5 secs   av.it.:  18.9
      thresh= 1.131E-07 alpha_mix =  0.700 |ddv_scf|^2 =  5.356E-13

      iter #  10 total cpu time : 62125.4 secs   av.it.:  18.0
      thresh= 7.318E-08 alpha_mix =  0.700 |ddv_scf|^2 =  7.347E-14

      iter #  11 total cpu time : 62162.6 secs   av.it.:  18.0
      thresh= 2.710E-08 alpha_mix =  0.700 |ddv_scf|^2 =  3.335E-14

      iter #  12 total cpu time : 62199.3 secs   av.it.:  18.0
      thresh= 1.826E-08 alpha_mix =  0.700 |ddv_scf|^2 =  6.011E-15

     End of self-consistent calculation

     Convergence has been achieved 


     Representation #  28 mode #  28

     Self-consistent Calculation

      iter #   1 total cpu time : 62220.8 secs   av.it.:   8.9
      thresh= 1.000E-02 alpha_mix =  0.700 |ddv_scf|^2 =  4.799E-06

      iter #   2 total cpu time : 62257.6 secs   av.it.:  18.0
      thresh= 2.191E-04 alpha_mix =  0.700 |ddv_scf|^2 =  8.409E-06

      iter #   3 total cpu time : 62292.8 secs   av.it.:  17.0
      thresh= 2.900E-04 alpha_mix =  0.700 |ddv_scf|^2 =  6.006E-07

      iter #   4 total cpu time : 62329.1 secs   av.it.:  17.0
      thresh= 7.750E-05 alpha_mix =  0.700 |ddv_scf|^2 =  8.075E-09

      iter #   5 total cpu time : 62365.1 secs   av.it.:  17.7
      thresh= 8.986E-06 alpha_mix =  0.700 |ddv_scf|^2 =  6.325E-10

      iter #   6 total cpu time : 62403.6 secs   av.it.:  18.9
      thresh= 2.515E-06 alpha_mix =  0.700 |ddv_scf|^2 =  3.318E-10

      iter #   7 total cpu time : 62440.0 secs   av.it.:  17.6
      thresh= 1.821E-06 alpha_mix =  0.700 |ddv_scf|^2 =  1.106E-11

      iter #   8 total cpu time : 62477.8 secs   av.it.:  17.8
      thresh= 3.325E-07 alpha_mix =  0.700 |ddv_scf|^2 =  4.070E-13

      iter #   9 total cpu time : 62518.1 secs   av.it.:  19.4
      thresh= 6.379E-08 alpha_mix =  0.700 |ddv_scf|^2 =  5.251E-13

      iter #  10 total cpu time : 62555.2 secs   av.it.:  18.0
      thresh= 7.247E-08 alpha_mix =  0.700 |ddv_scf|^2 =  9.984E-15

     End of self-consistent calculation

     Convergence has been achieved 


     Representation #  29 mode #  29

     Self-consistent Calculation

      iter #   1 total cpu time : 62576.6 secs   av.it.:   9.0
      thresh= 1.000E-02 alpha_mix =  0.700 |ddv_scf|^2 =  1.800E-06

      iter #   2 total cpu time : 62612.7 secs   av.it.:  18.0
      thresh= 1.341E-04 alpha_mix =  0.700 |ddv_scf|^2 =  1.473E-07

      iter #   3 total cpu time : 62651.2 secs   av.it.:  19.0
      thresh= 3.838E-05 alpha_mix =  0.700 |ddv_scf|^2 =  1.022E-07

      iter #   4 total cpu time : 62689.5 secs   av.it.:  18.0
      thresh= 3.197E-05 alpha_mix =  0.700 |ddv_scf|^2 =  3.279E-09

      iter #   5 total cpu time : 62728.1 secs   av.it.:  18.0
      thresh= 5.726E-06 alpha_mix =  0.700 |ddv_scf|^2 =  1.295E-09

      iter #   6 total cpu time : 62770.8 secs   av.it.:  17.9
      thresh= 3.599E-06 alpha_mix =  0.700 |ddv_scf|^2 =  6.077E-11

      iter #   7 total cpu time : 62816.6 secs   av.it.:  18.6
      thresh= 7.796E-07 alpha_mix =  0.700 |ddv_scf|^2 =  1.601E-11

      iter #   8 total cpu time : 62859.2 secs   av.it.:  18.0
      thresh= 4.001E-07 alpha_mix =  0.700 |ddv_scf|^2 =  4.450E-13

      iter #   9 total cpu time : 62902.6 secs   av.it.:  18.0
      thresh= 6.671E-08 alpha_mix =  0.700 |ddv_scf|^2 =  2.253E-13

      iter #  10 total cpu time : 62947.4 secs   av.it.:  18.9
      thresh= 4.746E-08 alpha_mix =  0.700 |ddv_scf|^2 =  1.087E-13

      iter #  11 total cpu time : 62990.1 secs   av.it.:  18.0
      thresh= 3.296E-08 alpha_mix =  0.700 |ddv_scf|^2 =  1.573E-14

      iter #  12 total cpu time : 63034.6 secs   av.it.:  18.0
      thresh= 1.254E-08 alpha_mix =  0.700 |ddv_scf|^2 =  5.585E-15

     End of self-consistent calculation

     Convergence has been achieved 


     Representation #  30 mode #  30

     Self-consistent Calculation

      iter #   1 total cpu time : 63061.2 secs   av.it.:   9.0
      thresh= 1.000E-02 alpha_mix =  0.700 |ddv_scf|^2 =  1.439E-06

      iter #   2 total cpu time : 63106.0 secs   av.it.:  19.0
      thresh= 1.199E-04 alpha_mix =  0.700 |ddv_scf|^2 =  2.768E-06

      iter #   3 total cpu time : 63147.9 secs   av.it.:  17.8
      thresh= 1.664E-04 alpha_mix =  0.700 |ddv_scf|^2 =  1.133E-07

      iter #   4 total cpu time : 63185.1 secs   av.it.:  17.0
      thresh= 3.366E-05 alpha_mix =  0.700 |ddv_scf|^2 =  1.524E-08

      iter #   5 total cpu time : 63221.9 secs   av.it.:  18.0
      thresh= 1.235E-05 alpha_mix =  0.700 |ddv_scf|^2 =  1.257E-10

      iter #   6 total cpu time : 63259.8 secs   av.it.:  18.1
      thresh= 1.121E-06 alpha_mix =  0.700 |ddv_scf|^2 =  1.681E-11

      iter #   7 total cpu time : 63299.5 secs   av.it.:  19.0
      thresh= 4.100E-07 alpha_mix =  0.700 |ddv_scf|^2 =  7.486E-12

      iter #   8 total cpu time : 63336.8 secs   av.it.:  18.0
      thresh= 2.736E-07 alpha_mix =  0.700 |ddv_scf|^2 =  3.601E-13

      iter #   9 total cpu time : 63375.0 secs   av.it.:  18.0
      thresh= 6.001E-08 alpha_mix =  0.700 |ddv_scf|^2 =  2.872E-14

      iter #  10 total cpu time : 63414.9 secs   av.it.:  18.1
      thresh= 1.695E-08 alpha_mix =  0.700 |ddv_scf|^2 =  6.590E-15

     End of self-consistent calculation

     Convergence has been achieved 


     Representation #  31 mode #  31

     Self-consistent Calculation

      iter #   1 total cpu time : 63437.2 secs   av.it.:   8.8
      thresh= 1.000E-02 alpha_mix =  0.700 |ddv_scf|^2 =  2.125E-06

      iter #   2 total cpu time : 63474.4 secs   av.it.:  18.0
      thresh= 1.458E-04 alpha_mix =  0.700 |ddv_scf|^2 =  1.914E-07

      iter #   3 total cpu time : 63513.2 secs   av.it.:  18.0
      thresh= 4.375E-05 alpha_mix =  0.700 |ddv_scf|^2 =  5.599E-08

      iter #   4 total cpu time : 63551.5 secs   av.it.:  18.0
      thresh= 2.366E-05 alpha_mix =  0.700 |ddv_scf|^2 =  7.527E-09

      iter #   5 total cpu time : 63590.1 secs   av.it.:  18.0
      thresh= 8.676E-06 alpha_mix =  0.700 |ddv_scf|^2 =  9.130E-10

      iter #   6 total cpu time : 63629.9 secs   av.it.:  18.0
      thresh= 3.022E-06 alpha_mix =  0.700 |ddv_scf|^2 =  1.052E-10

      iter #   7 total cpu time : 63667.6 secs   av.it.:  18.0
      thresh= 1.026E-06 alpha_mix =  0.700 |ddv_scf|^2 =  1.164E-11

      iter #   8 total cpu time : 63711.7 secs   av.it.:  18.1
      thresh= 3.411E-07 alpha_mix =  0.700 |ddv_scf|^2 =  2.512E-12

      iter #   9 total cpu time : 63752.1 secs   av.it.:  18.7
      thresh= 1.585E-07 alpha_mix =  0.700 |ddv_scf|^2 =  4.940E-13

      iter #  10 total cpu time : 63795.5 secs   av.it.:  18.0
      thresh= 7.028E-08 alpha_mix =  0.700 |ddv_scf|^2 =  2.730E-13

      iter #  11 total cpu time : 63832.2 secs   av.it.:  17.9
      thresh= 5.225E-08 alpha_mix =  0.700 |ddv_scf|^2 =  3.287E-14

      iter #  12 total cpu time : 63868.9 secs   av.it.:  18.0
      thresh= 1.813E-08 alpha_mix =  0.700 |ddv_scf|^2 =  1.548E-14

      iter #  13 total cpu time : 63905.4 secs   av.it.:  18.0
      thresh= 1.244E-08 alpha_mix =  0.700 |ddv_scf|^2 =  1.215E-15

     End of self-consistent calculation

     Convergence has been achieved 


     Representation #  32 mode #  32

     Self-consistent Calculation

      iter #   1 total cpu time : 63928.8 secs   av.it.:   9.0
      thresh= 1.000E-02 alpha_mix =  0.700 |ddv_scf|^2 =  3.081E-06

      iter #   2 total cpu time : 63965.8 secs   av.it.:  18.0
      thresh= 1.755E-04 alpha_mix =  0.700 |ddv_scf|^2 =  1.164E-06

      iter #   3 total cpu time : 64002.2 secs   av.it.:  17.9
      thresh= 1.079E-04 alpha_mix =  0.700 |ddv_scf|^2 =  1.045E-07

      iter #   4 total cpu time : 64044.4 secs   av.it.:  18.0
      thresh= 3.233E-05 alpha_mix =  0.700 |ddv_scf|^2 =  9.854E-09

      iter #   5 total cpu time : 64082.8 secs   av.it.:  18.0
      thresh= 9.927E-06 alpha_mix =  0.700 |ddv_scf|^2 =  1.493E-09

      iter #   6 total cpu time : 64122.1 secs   av.it.:  18.0
      thresh= 3.864E-06 alpha_mix =  0.700 |ddv_scf|^2 =  3.320E-10

      iter #   7 total cpu time : 64160.4 secs   av.it.:  18.0
      thresh= 1.822E-06 alpha_mix =  0.700 |ddv_scf|^2 =  1.838E-11

      iter #   8 total cpu time : 64201.0 secs   av.it.:  19.0
      thresh= 4.288E-07 alpha_mix =  0.700 |ddv_scf|^2 =  8.723E-12

      iter #   9 total cpu time : 64239.4 secs   av.it.:  18.0
      thresh= 2.954E-07 alpha_mix =  0.700 |ddv_scf|^2 =  1.518E-13

      iter #  10 total cpu time : 64278.0 secs   av.it.:  19.0
      thresh= 3.897E-08 alpha_mix =  0.700 |ddv_scf|^2 =  6.307E-14

      iter #  11 total cpu time : 64315.7 secs   av.it.:  18.0
      thresh= 2.511E-08 alpha_mix =  0.700 |ddv_scf|^2 =  5.354E-15

     End of self-consistent calculation

     Convergence has been achieved 


     Representation #  33 mode #  33

     Self-consistent Calculation

      iter #   1 total cpu time : 64338.2 secs   av.it.:   9.0
      thresh= 1.000E-02 alpha_mix =  0.700 |ddv_scf|^2 =  3.069E-06

      iter #   2 total cpu time : 64376.3 secs   av.it.:  18.0
      thresh= 1.752E-04 alpha_mix =  0.700 |ddv_scf|^2 =  9.925E-07

      iter #   3 total cpu time : 64412.0 secs   av.it.:  17.6
      thresh= 9.962E-05 alpha_mix =  0.700 |ddv_scf|^2 =  8.692E-08

      iter #   4 total cpu time : 64449.9 secs   av.it.:  18.0
      thresh= 2.948E-05 alpha_mix =  0.700 |ddv_scf|^2 =  8.323E-09

      iter #   5 total cpu time : 64488.1 secs   av.it.:  18.0
      thresh= 9.123E-06 alpha_mix =  0.700 |ddv_scf|^2 =  7.821E-10

      iter #   6 total cpu time : 64525.2 secs   av.it.:  18.0
      thresh= 2.797E-06 alpha_mix =  0.700 |ddv_scf|^2 =  1.271E-10

      iter #   7 total cpu time : 64562.9 secs   av.it.:  18.0
      thresh= 1.127E-06 alpha_mix =  0.700 |ddv_scf|^2 =  1.503E-11

      iter #   8 total cpu time : 64600.0 secs   av.it.:  18.0
      thresh= 3.876E-07 alpha_mix =  0.700 |ddv_scf|^2 =  1.083E-11

      iter #   9 total cpu time : 64637.1 secs   av.it.:  17.6
      thresh= 3.291E-07 alpha_mix =  0.700 |ddv_scf|^2 =  2.268E-13

      iter #  10 total cpu time : 64677.6 secs   av.it.:  18.2
      thresh= 4.762E-08 alpha_mix =  0.700 |ddv_scf|^2 =  1.271E-13

      iter #  11 total cpu time : 64714.6 secs   av.it.:  18.0
      thresh= 3.565E-08 alpha_mix =  0.700 |ddv_scf|^2 =  2.342E-14

      iter #  12 total cpu time : 64752.8 secs   av.it.:  18.0
      thresh= 1.530E-08 alpha_mix =  0.700 |ddv_scf|^2 =  6.084E-15

     End of self-consistent calculation

     Convergence has been achieved 


     Representation #  34 mode #  34

     Self-consistent Calculation

      iter #   1 total cpu time : 64775.1 secs   av.it.:   9.0
      thresh= 1.000E-02 alpha_mix =  0.700 |ddv_scf|^2 =  3.752E-06

      iter #   2 total cpu time : 64812.9 secs   av.it.:  18.0
      thresh= 1.937E-04 alpha_mix =  0.700 |ddv_scf|^2 =  1.154E-06

      iter #   3 total cpu time : 64849.4 secs   av.it.:  18.0
      thresh= 1.074E-04 alpha_mix =  0.700 |ddv_scf|^2 =  1.515E-07

      iter #   4 total cpu time : 64887.6 secs   av.it.:  18.0
      thresh= 3.893E-05 alpha_mix =  0.700 |ddv_scf|^2 =  1.656E-08

      iter #   5 total cpu time : 64924.1 secs   av.it.:  18.0
      thresh= 1.287E-05 alpha_mix =  0.700 |ddv_scf|^2 =  1.766E-09

      iter #   6 total cpu time : 64961.8 secs   av.it.:  18.0
      thresh= 4.202E-06 alpha_mix =  0.700 |ddv_scf|^2 =  3.529E-10

      iter #   7 total cpu time : 64998.9 secs   av.it.:  17.9
      thresh= 1.879E-06 alpha_mix =  0.700 |ddv_scf|^2 =  1.690E-11

      iter #   8 total cpu time : 65037.0 secs   av.it.:  18.9
      thresh= 4.111E-07 alpha_mix =  0.700 |ddv_scf|^2 =  6.133E-12

      iter #   9 total cpu time : 65074.8 secs   av.it.:  18.0
      thresh= 2.476E-07 alpha_mix =  0.700 |ddv_scf|^2 =  4.667E-13

      iter #  10 total cpu time : 65112.7 secs   av.it.:  19.0
      thresh= 6.831E-08 alpha_mix =  0.700 |ddv_scf|^2 =  4.312E-13

      iter #  11 total cpu time : 65150.9 secs   av.it.:  18.0
      thresh= 6.566E-08 alpha_mix =  0.700 |ddv_scf|^2 =  7.434E-14

      iter #  12 total cpu time : 65188.3 secs   av.it.:  18.0
      thresh= 2.727E-08 alpha_mix =  0.700 |ddv_scf|^2 =  1.643E-14

      iter #  13 total cpu time : 65225.1 secs   av.it.:  18.0
      thresh= 1.282E-08 alpha_mix =  0.700 |ddv_scf|^2 =  2.791E-15

     End of self-consistent calculation

     Convergence has been achieved 


     Representation #  35 mode #  35

     Self-consistent Calculation

      iter #   1 total cpu time : 65246.8 secs   av.it.:   9.0
      thresh= 1.000E-02 alpha_mix =  0.700 |ddv_scf|^2 =  9.974E-07

      iter #   2 total cpu time : 65286.0 secs   av.it.:  19.0
      thresh= 9.987E-05 alpha_mix =  0.700 |ddv_scf|^2 =  1.385E-06

      iter #   3 total cpu time : 65323.5 secs   av.it.:  18.0
      thresh= 1.177E-04 alpha_mix =  0.700 |ddv_scf|^2 =  7.374E-08

      iter #   4 total cpu time : 65359.3 secs   av.it.:  17.7
      thresh= 2.716E-05 alpha_mix =  0.700 |ddv_scf|^2 =  1.320E-08

      iter #   5 total cpu time : 65396.2 secs   av.it.:  17.8
      thresh= 1.149E-05 alpha_mix =  0.700 |ddv_scf|^2 =  1.964E-10

      iter #   6 total cpu time : 65432.9 secs   av.it.:  18.0
      thresh= 1.401E-06 alpha_mix =  0.700 |ddv_scf|^2 =  2.212E-11

      iter #   7 total cpu time : 65471.2 secs   av.it.:  18.1
      thresh= 4.704E-07 alpha_mix =  0.700 |ddv_scf|^2 =  7.568E-12

      iter #   8 total cpu time : 65508.9 secs   av.it.:  18.0
      thresh= 2.751E-07 alpha_mix =  0.700 |ddv_scf|^2 =  3.174E-13

      iter #   9 total cpu time : 65546.5 secs   av.it.:  18.8
      thresh= 5.634E-08 alpha_mix =  0.700 |ddv_scf|^2 =  6.301E-14

      iter #  10 total cpu time : 65584.9 secs   av.it.:  18.2
      thresh= 2.510E-08 alpha_mix =  0.700 |ddv_scf|^2 =  1.940E-14

      iter #  11 total cpu time : 65622.3 secs   av.it.:  18.2
      thresh= 1.393E-08 alpha_mix =  0.700 |ddv_scf|^2 =  7.914E-15

     End of self-consistent calculation

     Convergence has been achieved 


     Representation #  36 mode #  36

     Self-consistent Calculation

      iter #   1 total cpu time : 65643.8 secs   av.it.:   8.0
      thresh= 1.000E-02 alpha_mix =  0.700 |ddv_scf|^2 =  3.056E-06

      iter #   2 total cpu time : 65679.5 secs   av.it.:  17.0
      thresh= 1.748E-04 alpha_mix =  0.700 |ddv_scf|^2 =  2.669E-07

      iter #   3 total cpu time : 65718.2 secs   av.it.:  18.8
      thresh= 5.166E-05 alpha_mix =  0.700 |ddv_scf|^2 =  1.860E-07

      iter #   4 total cpu time : 65753.9 secs   av.it.:  17.4
      thresh= 4.313E-05 alpha_mix =  0.700 |ddv_scf|^2 =  2.964E-09

      iter #   5 total cpu time : 65792.3 secs   av.it.:  18.1
      thresh= 5.444E-06 alpha_mix =  0.700 |ddv_scf|^2 =  1.412E-09

      iter #   6 total cpu time : 65829.8 secs   av.it.:  18.0
      thresh= 3.758E-06 alpha_mix =  0.700 |ddv_scf|^2 =  7.329E-11

      iter #   7 total cpu time : 65866.9 secs   av.it.:  18.0
      thresh= 8.561E-07 alpha_mix =  0.700 |ddv_scf|^2 =  8.257E-12

      iter #   8 total cpu time : 65903.2 secs   av.it.:  17.0
      thresh= 2.874E-07 alpha_mix =  0.700 |ddv_scf|^2 =  3.590E-13

      iter #   9 total cpu time : 65942.7 secs   av.it.:  19.0
      thresh= 5.992E-08 alpha_mix =  0.700 |ddv_scf|^2 =  3.075E-13

      iter #  10 total cpu time : 65980.2 secs   av.it.:  18.0
      thresh= 5.546E-08 alpha_mix =  0.700 |ddv_scf|^2 =  6.545E-15

     End of self-consistent calculation

     Convergence has been achieved 

     Number of q in the star =    1
     List of q in the star:
          1   0.000000000   0.000000000   0.000000000

          Dielectric constant in cartesian axis 

          (       2.466026498      -0.045628942      -0.242638904 )
          (      -0.045629242       2.313829840       0.087580211 )
          (      -0.242638838       0.087580064       2.601218934 )

          Effective charges (d Force / dE) in cartesian axis without acoustic sum rule applied (asr)

           atom    1  S     Mean Z*:        3.16059
      Ex  (        2.94276       -0.49022       -0.07630 )
      Ey  (        0.08373        3.23519        0.07406 )
      Ez  (        0.13383        0.73161        3.30382 )
           atom    2  S     Mean Z*:        3.16059
      Ex  (        2.94276       -0.49022       -0.07630 )
      Ey  (        0.08373        3.23519        0.07406 )
      Ez  (        0.13383        0.73161        3.30382 )
           atom    3  Na    Mean Z*:        1.20045
      Ex  (        1.22699        0.04319        0.00849 )
      Ey  (        0.03130        1.18477       -0.04041 )
      Ez  (       -0.01650       -0.04940        1.18958 )
           atom    4  Na    Mean Z*:        1.20045
      Ex  (        1.22699        0.04319        0.00849 )
      Ey  (        0.03130        1.18477       -0.04041 )
      Ez  (       -0.01650       -0.04940        1.18958 )
           atom    5  O     Mean Z*:       -0.68474
      Ex  (       -0.47357        0.38711        0.22600 )
      Ey  (        0.19113       -0.84548       -0.33696 )
      Ez  (        0.16297       -0.59824       -0.73518 )
           atom    6  O     Mean Z*:       -0.68474
      Ex  (       -0.47357        0.38711        0.22600 )
      Ey  (        0.19113       -0.84548       -0.33696 )
      Ez  (        0.16297       -0.59824       -0.73518 )
           atom    7  O     Mean Z*:       -1.23273
      Ex  (       -1.23505       -0.26413        0.46486 )
      Ey  (       -0.26840       -1.16909        0.17931 )
      Ez  (        0.44051        0.15017       -1.29405 )
           atom    8  O     Mean Z*:       -1.23273
      Ex  (       -1.23505       -0.26413        0.46486 )
      Ey  (       -0.26840       -1.16909        0.17931 )
      Ez  (        0.44051        0.15017       -1.29405 )
           atom    9  O     Mean Z*:       -1.20446
      Ex  (       -1.32396       -0.14705       -0.25790 )
      Ey  (       -0.35245       -1.04103       -0.25627 )
      Ez  (       -0.53371       -0.39301       -1.24838 )
           atom   10  O     Mean Z*:       -1.20446
      Ex  (       -1.32396       -0.14705       -0.25790 )
      Ey  (       -0.35245       -1.04103       -0.25627 )
      Ez  (       -0.53371       -0.39301       -1.24838 )
           atom   11  O     Mean Z*:       -1.17442
      Ex  (       -1.07500        0.46487       -0.36322 )
      Ey  (        0.30872       -1.29868        0.38792 )
      Ez  (       -0.18575        0.16676       -1.14958 )
           atom   12  O     Mean Z*:       -1.17442
      Ex  (       -1.07500        0.46487       -0.36322 )
      Ey  (        0.30872       -1.29868        0.38792 )
      Ez  (       -0.18575        0.16676       -1.14958 )

          Effective charges Sum: Mean:        0.12936
              0.12433       -0.01194        0.00272
             -0.01246        0.13135        0.01577
              0.00385        0.01528        0.13240

          Effective charges (d Force / dE) in cartesian axis with asr applied: 
           atom    1  S     Mean Z*:        3.14981
      E*x (        2.93239       -0.48918       -0.07662 )
      E*y (        0.08473        3.22424        0.07278 )
      E*z (        0.13361        0.73029        3.29279 )
           atom    2  S     Mean Z*:        3.14981
      E*x (        2.93239       -0.48918       -0.07662 )
      E*y (        0.08473        3.22424        0.07278 )
      E*z (        0.13361        0.73029        3.29279 )
           atom    3  Na    Mean Z*:        1.18967
      E*x (        1.21663        0.04423        0.00817 )
      E*y (        0.03229        1.17382       -0.04169 )
      E*z (       -0.01673       -0.05072        1.17854 )
           atom    4  Na    Mean Z*:        1.18967
      E*x (        1.21663        0.04423        0.00817 )
      E*y (        0.03229        1.17382       -0.04169 )
      E*z (       -0.01673       -0.05072        1.17854 )
           atom    5  O     Mean Z*:       -0.69552
      E*x (       -0.48393        0.38814        0.22567 )
      E*y (        0.19213       -0.85643       -0.33824 )
      E*z (        0.16274       -0.59956       -0.74621 )
           atom    6  O     Mean Z*:       -0.69552
      E*x (       -0.48393        0.38814        0.22567 )
      E*y (        0.19213       -0.85643       -0.33824 )
      E*z (        0.16274       -0.59956       -0.74621 )
           atom    7  O     Mean Z*:       -1.24351
      E*x (       -1.24541       -0.26309        0.46454 )
      E*y (       -0.26741       -1.18004        0.17804 )
      E*z (        0.44028        0.14885       -1.30509 )
           atom    8  O     Mean Z*:       -1.24351
      E*x (       -1.24541       -0.26309        0.46454 )
      E*y (       -0.26741       -1.18004        0.17804 )
      E*z (        0.44028        0.14885       -1.30509 )
           atom    9  O     Mean Z*:       -1.21524
      E*x (       -1.33432       -0.14601       -0.25822 )
      E*y (       -0.35146       -1.05198       -0.25755 )
      E*z (       -0.53393       -0.39432       -1.25941 )
           atom   10  O     Mean Z*:       -1.21524
      E*x (       -1.33432       -0.14601       -0.25822 )
      E*y (       -0.35146       -1.05198       -0.25755 )
      E*z (       -0.53393       -0.39432       -1.25941 )
           atom   11  O     Mean Z*:       -1.18520
      E*x (       -1.08536        0.46591       -0.36354 )
      E*y (        0.30971       -1.30962        0.38665 )
      E*z (       -0.18597        0.16545       -1.16062 )
           atom   12  O     Mean Z*:       -1.18520
      E*x (       -1.08536        0.46591       -0.36354 )
      E*y (        0.30971       -1.30962        0.38665 )
      E*z (       -0.18597        0.16545       -1.16062 )

     Diagonalizing the dynamical matrix

     q = (    0.000000000   0.000000000   0.000000000 ) 

 **************************************************************************
     freq (    1) =      -0.442848 [THz] =     -14.771826 [cm-1]
     freq (    2) =      -0.343539 [THz] =     -11.459230 [cm-1]
     freq (    3) =       0.457398 [THz] =      15.257143 [cm-1]
     freq (    4) =       2.794119 [THz] =      93.201786 [cm-1]
     freq (    5) =       3.145529 [THz] =     104.923561 [cm-1]
     freq (    6) =       3.360548 [THz] =     112.095827 [cm-1]
     freq (    7) =       3.426780 [THz] =     114.305075 [cm-1]
     freq (    8) =       3.617932 [THz] =     120.681206 [cm-1]
     freq (    9) =       4.100120 [THz] =     136.765287 [cm-1]
     freq (   10) =       4.227573 [THz] =     141.016658 [cm-1]
     freq (   11) =       5.442686 [THz] =     181.548463 [cm-1]
     freq (   12) =       5.475870 [THz] =     182.655370 [cm-1]
     freq (   13) =       6.173888 [THz] =     205.938738 [cm-1]
     freq (   14) =       6.235186 [THz] =     207.983409 [cm-1]
     freq (   15) =       6.899836 [THz] =     230.153761 [cm-1]
     freq (   16) =       7.035587 [THz] =     234.681919 [cm-1]
     freq (   17) =       7.555396 [THz] =     252.020894 [cm-1]
     freq (   18) =      10.101209 [THz] =     336.940079 [cm-1]
     freq (   19) =      11.336753 [THz] =     378.153379 [cm-1]
     freq (   20) =      12.000031 [THz] =     400.277945 [cm-1]
     freq (   21) =      13.259919 [THz] =     442.303298 [cm-1]
     freq (   22) =      15.652519 [THz] =     522.111819 [cm-1]
     freq (   23) =      15.806543 [THz] =     527.249534 [cm-1]
     freq (   24) =      15.873912 [THz] =     529.496723 [cm-1]
     freq (   25) =      16.305953 [THz] =     543.908052 [cm-1]
     freq (   26) =      16.817283 [THz] =     560.964169 [cm-1]
     freq (   27) =      18.236720 [THz] =     608.311512 [cm-1]
     freq (   28) =      19.938217 [THz] =     665.067340 [cm-1]
     freq (   29) =      21.868248 [THz] =     729.446228 [cm-1]
     freq (   30) =      24.559471 [THz] =     819.215765 [cm-1]
     freq (   31) =      29.910026 [THz] =     997.691066 [cm-1]
     freq (   32) =      30.795756 [THz] =    1027.235853 [cm-1]
     freq (   33) =      35.328198 [THz] =    1178.421846 [cm-1]
     freq (   34) =      35.578050 [THz] =    1186.756009 [cm-1]
     freq (   35) =      35.804830 [THz] =    1194.320570 [cm-1]
     freq (   36) =      36.434537 [THz] =    1215.325337 [cm-1]
 **************************************************************************

     Mode symmetry, C_i (-1)    point group:

     freq (   1-   1) =        -14.8  [cm-1]   --> A_u             I  
     freq (   2-   2) =        -11.5  [cm-1]   --> A_u             I  
     freq (   3-   3) =         15.3  [cm-1]   --> A_u             I  
     freq (   4-   4) =         93.2  [cm-1]   --> A_u             I  
     freq (   5-   5) =        104.9  [cm-1]   --> A_g             R  
     freq (   6-   6) =        112.1  [cm-1]   --> A_g             R  
     freq (   7-   7) =        114.3  [cm-1]   --> A_g             R  
     freq (   8-   8) =        120.7  [cm-1]   --> A_u             I  
     freq (   9-   9) =        136.8  [cm-1]   --> A_u             I  
     freq (  10-  10) =        141.0  [cm-1]   --> A_g             R  
     freq (  11-  11) =        181.5  [cm-1]   --> A_g             R  
     freq (  12-  12) =        182.7  [cm-1]   --> A_u             I  
     freq (  13-  13) =        205.9  [cm-1]   --> A_g             R  
     freq (  14-  14) =        208.0  [cm-1]   --> A_u             I  
     freq (  15-  15) =        230.2  [cm-1]   --> A_g             R  
     freq (  16-  16) =        234.7  [cm-1]   --> A_u             I  
     freq (  17-  17) =        252.0  [cm-1]   --> A_g             R  
     freq (  18-  18) =        336.9  [cm-1]   --> A_g             R  
     freq (  19-  19) =        378.2  [cm-1]   --> A_u             I  
     freq (  20-  20) =        400.3  [cm-1]   --> A_g             R  
     freq (  21-  21) =        442.3  [cm-1]   --> A_u             I  
     freq (  22-  22) =        522.1  [cm-1]   --> A_u             I  
     freq (  23-  23) =        527.2  [cm-1]   --> A_g             R  
     freq (  24-  24) =        529.5  [cm-1]   --> A_u             I  
     freq (  25-  25) =        543.9  [cm-1]   --> A_g             R  
     freq (  26-  26) =        561.0  [cm-1]   --> A_u             I  
     freq (  27-  27) =        608.3  [cm-1]   --> A_g             R  
     freq (  28-  28) =        665.1  [cm-1]   --> A_u             I  
     freq (  29-  29) =        729.4  [cm-1]   --> A_g             R  
     freq (  30-  30) =        819.2  [cm-1]   --> A_g             R  
     freq (  31-  31) =        997.7  [cm-1]   --> A_u             I  
     freq (  32-  32) =       1027.2  [cm-1]   --> A_g             R  
     freq (  33-  33) =       1178.4  [cm-1]   --> A_u             I  
     freq (  34-  34) =       1186.8  [cm-1]   --> A_g             R  
     freq (  35-  35) =       1194.3  [cm-1]   --> A_u             I  
     freq (  36-  36) =       1215.3  [cm-1]   --> A_g             R  

     PHONON       :      4h35m CPU     18h19m WALL

     INITIALIZATION: 
     phq_setup    :      0.01s CPU      0.01s WALL (       1 calls)
     phq_init     :     32.54s CPU     33.07s WALL (       1 calls)

     phq_init     :     32.54s CPU     33.07s WALL (       1 calls)
     set_drhoc    :      0.00s CPU      0.00s WALL (       3 calls)
     init_vloc    :      0.00s CPU      0.00s WALL (       1 calls)
     init_us_1    :      0.02s CPU      0.02s WALL (       1 calls)
     init_us_2    :     12.32s CPU     14.04s WALL (   53000 calls)
     newd         :      0.01s CPU      0.02s WALL (       1 calls)
     dvanqq       :      0.56s CPU      0.56s WALL (       1 calls)
     drho         :     29.20s CPU     29.68s WALL (       1 calls)
     drhous       :     26.76s CPU     27.23s WALL (       1 calls)
     nldyntot     :      1.80s CPU      1.80s WALL (       1 calls)
     cmpt_qdipol  :      0.00s CPU      0.00s WALL (       1 calls)

     DIELECTRIC CONSTANT AND EFFECTIVE CHARGES:
     solve_e      :   1630.82s CPU   1659.00s WALL (       1 calls)
     dielec       :      0.02s CPU      0.07s WALL (       1 calls)
     zstar_eu     :    385.30s CPU    391.60s WALL (       1 calls)

     DYNAMICAL MATRIX:
     dynmat0      :      1.88s CPU      1.91s WALL (       1 calls)
     dynmat_us    :      1.86s CPU      1.89s WALL (       1 calls)
     addusdynmat  :      0.00s CPU      0.00s WALL (       1 calls)
     d2ionq       :      0.01s CPU      0.01s WALL (       1 calls)
     dynmatcc     :      0.00s CPU      0.00s WALL (       1 calls)
     phqscf       :  14474.54s CPU  63897.09s WALL (       1 calls)
     dynmatrix    :      0.00s CPU      0.02s WALL (       1 calls)

     phqscf       :  14474.54s CPU  63897.09s WALL (       1 calls)
     solve_linter :  14436.54s CPU  63857.48s WALL (      36 calls)
     sth_kernel   :  15739.34s CPU  65182.11s WALL (     419 calls)
     h_prec       :      3.78s CPU      4.37s WALL (   44732 calls)
     apply_dpot_b :    191.67s CPU    207.19s WALL (   42824 calls)
     ortho        :    279.67s CPU    283.53s WALL (   47276 calls)
     cgsolve      :  15075.66s CPU  64469.24s WALL (   47276 calls)
     incdrhoscf   :    325.08s CPU    340.37s WALL (   47276 calls)
                                        0.00s GPU  (   47276 calls)
     addusddens   :      6.86s CPU      6.90s WALL (     443 calls)
     dv_of_drho   :      0.82s CPU      0.86s WALL (     446 calls)
     mix_pot      :      0.25s CPU      0.43s WALL (     419 calls)
     drhodv       :     37.91s CPU     38.86s WALL (      36 calls)
     psymdvscf    :      1.83s CPU      1.89s WALL (     407 calls)
     newdq        :      6.63s CPU      6.76s WALL (     419 calls)
     adddvscf     :     77.64s CPU     78.81s WALL (   42824 calls)
     drhodvus     :      0.02s CPU      0.07s WALL (      36 calls)

     dvqpsi_us    :    113.78s CPU    116.06s WALL (    7632 calls)
                                        0.00s GPU  (    7632 calls)
     dvqpsi_us_on :     79.57s CPU     80.09s WALL (    7632 calls)

     add_vuspsi   :   1810.84s CPU   1821.42s WALL ( 1198180 calls)
     addusdbec    :    115.57s CPU    118.10s WALL (   51092 calls)

     drhodvus     :      0.02s CPU      0.07s WALL (      36 calls)

      General routines
     calbec       :   4314.01s CPU   4401.16s WALL ( 2603272 calls)
     fft          :      1.06s CPU      1.12s WALL (    8855 calls)
     ffts         :      1.93s CPU      2.13s WALL (    8964 calls)
     fftw         :   3516.88s CPU  52778.40s WALL (74339312 calls)
     davcio       :     24.74s CPU     40.16s WALL (  235883 calls)
     write_rec    :      0.48s CPU      1.79s WALL (     455 calls)

      Additional routines
     ch_psi       :  14537.65s CPU  63923.96s WALL ( 1198180 calls)
     last         :   5081.65s CPU   5139.33s WALL ( 1198180 calls)
     Hesh         :     37.77s CPU     38.16s WALL ( 1198180 calls)
     ch_psi_all_k :   5040.46s CPU   5098.04s WALL ( 1198180 calls)
                                        0.00s GPU  ( 1198180 calls)
     ch_psi_calbe :   1843.71s CPU   1871.51s WALL ( 1198180 calls)
                                        0.00s GPU  ( 1198180 calls)
     h_psi_bgrp   :   7554.88s CPU  56871.36s WALL ( 1198180 calls)
     h_psi        :   7553.03s CPU  56869.76s WALL ( 1198180 calls)
     h_psi:pot    :   7510.96s CPU  56826.86s WALL ( 1198180 calls)
     h_psi:calbec :   2033.04s CPU   2082.83s WALL ( 1198180 calls)
     s_psi_bgrp   :   3770.25s CPU   3792.07s WALL ( 2443954 calls)
     s_psi        :   3738.72s CPU   3760.73s WALL ( 2443954 calls)


     PHONON       :      4h35m CPU     18h19m WALL


   This run was terminated on:  11:38:40  12Aug2024            

=------------------------------------------------------------------------------=
   JOB DONE.
=------------------------------------------------------------------------------=
