Start at Sun 11 Aug 17:16:40 BST 2024
Copy and edit the input files to the local directory
Na2SO42.scf.in...................................
&CONTROL
      calculation = 'scf' 
      outdir = '.' 
      pseudo_dir = '/home/software/PseudoPotentials/QE' 
      nstep = 1000
      tprnfor = .true.
      tstress = .true.
      etot_conv_thr = 1.0d-7
      forc_conv_thr = 1.0d-6
/
&SYSTEM
  ibrav = 0
  A =    4.780
  nat = 12
  ntyp = 3
  ecutwfc = 30.0D0
  input_dft = 'pbe'
/
&ELECTRONS
  conv_thr = 1.0D-10
  mixing_beta = 0.3D0
/
&IONS
  ion_dynamics = 'bfgs'
  pot_extrapolation = 'second_order'
/
CELL_PARAMETERS {alat}
  1.000000000000000   0.000000000000000   0.000000000000000 
 -0.150579971949830   1.156556669451014   0.000000000000000 
 -0.293945722767960  -0.302611362049708   1.202406194659567 
ATOMIC_SPECIES
  Na   22.98900  Na.pbe-sp-van_ak.UPF
   S   32.06750  S.pbe-n-rrkjus_psl.0.1.UPF
   O   15.99900  O.pbe-van_ak.UPF
ATOMIC_POSITIONS {crystal}
S        0.612052373   0.777101049   0.243900071
S        0.387947627   0.222898951   0.756099929
Na       0.035808557   0.314183542   0.210035587
Na       0.964191443   0.685816458   0.789964413
O        0.581864594   0.039115313   0.417186937
O        0.418135406   0.960884687   0.582813063
O        0.773908849   0.896225119   0.106490248
O        0.226091151   0.103774881   0.893509752
O        0.313507635   0.647584107   0.121579418
O        0.686492365   0.352415893   0.878420582
O        0.773636931   0.637358272   0.391942488
O        0.226363069   0.362641728   0.608057512
K_POINTS automatic
7 6 5 0 0 0
Running the following command
mpirun -np 8 /home/software/bin/pw.x -inp Na2SO42.scf.in

     Program PWSCF v.7.3.1 starts on 11Aug2024 at 17:16:41 
        Git branch: master
        Last git commit: 7fd60c9bc9fe7a7d1fe6f1049f4afba0eab9aeef-dirty
        Last git commit date: Thu Feb 29 10:18:05 2024 +0000
        Last git commit subject: Merge branch 'master_qe_7.3.1' into 'master'

     This program is part of the open-source Quantum ESPRESSO suite
     for quantum simulation of materials; please cite
         "P. Giannozzi et al., J. Phys.:Condens. Matter 21 395502 (2009);
         "P. Giannozzi et al., J. Phys.:Condens. Matter 29 465901 (2017);
         "P. Giannozzi et al., J. Chem. Phys. 152 154105 (2020);
          URL http://www.quantum-espresso.org", 
     in publications or presentations arising from this work. More details at
     http://www.quantum-espresso.org/quote

     Parallel version (MPI), running on     8 processors

     MPI processes distributed on     1 nodes
     8050 MiB available memory on the printing compute node when the environment starts

     Reading input from Na2SO42.scf.in

     Current dimensions of program PWSCF are:
     Max number of different atomic species (ntypx) = 10
     Max number of k-points (npk) =  40000
     Max angular momentum in pseudopotentials (lmaxx) =  4
     Message from routine iosys:
     pot_extrapolation='second_order' not available, using 'atomic'

     IMPORTANT: XC functional enforced from input :
     Exchange-correlation= PBE
                           (   1   4   3   4   0   0   0)
     Any further DFT definition will be discarded
     Please, verify this is what you really want

     Message from routine setup:
     using ibrav=0 with symmetry is DISCOURAGED, use correct ibrav instead

     R & G space division:  proc/nbgrp/npool/nimage =       8
     Subspace diagonalization in iterative solution of the eigenvalue problem:
     a serial algorithm will be used


     Parallelization info
     --------------------
     sticks:   dense  smooth     PW     G-vecs:    dense   smooth      PW
     Min         112     112     33                 2842     2842     467
     Max         113     113     34                 2845     2845     470
     Sum         903     903    269                22745    22745    3747

     Using Slab Decomposition



     bravais-lattice index     =            0
     lattice parameter (alat)  =       9.0329  a.u.
     unit-cell volume          =    1024.9399 (a.u.)^3
     number of atoms/cell      =           12
     number of atomic types    =            3
     number of electrons       =        78.00
     number of Kohn-Sham states=           39
     kinetic-energy cutoff     =      30.0000  Ry
     charge density cutoff     =     120.0000  Ry
     scf convergence threshold =      1.0E-10
     mixing beta               =       0.3000
     number of iterations used =            8  plain     mixing
     Exchange-correlation= PBE
                           (   1   4   3   4   0   0   0)

     celldm(1)=   9.032891  celldm(2)=   0.000000  celldm(3)=   0.000000
     celldm(4)=   0.000000  celldm(5)=   0.000000  celldm(6)=   0.000000

     crystal axes: (cart. coord. in units of alat)
               a(1) = (   1.000000   0.000000   0.000000 )  
               a(2) = (  -0.150580   1.156557   0.000000 )  
               a(3) = (  -0.293946  -0.302611   1.202406 )  

     reciprocal axes: (cart. coord. in units 2 pi/alat)
               b(1) = (  1.000000  0.130197  0.277231 )  
               b(2) = ( -0.000000  0.864636  0.217604 )  
               b(3) = (  0.000000 -0.000000  0.831666 )  


     PseudoPot. # 1 for Na read from file:
     /home/software/PseudoPotentials/QE/Na.pbe-sp-van_ak.UPF
     MD5 check sum: b3e39564eed18be2046c1643d42efc62
     Pseudo is Ultrasoft, Zval =  9.0
     Generated by new atomic code, or converted to UPF format
     Using radial grid of  819 points,  6 beta functions with: 
                l(1) =   0
                l(2) =   0
                l(3) =   1
                l(4) =   1
                l(5) =   2
                l(6) =   2
     Q(r) pseudized with  8 coefficients,  rinner =    0.900   0.900   0.900
                                                       0.900   0.900

     PseudoPot. # 2 for S  read from file:
     /home/software/PseudoPotentials/QE/S.pbe-n-rrkjus_psl.0.1.UPF
     MD5 check sum: e5b4535a4bf9e0cc2db60196e4d9c48e
     Pseudo is Ultrasoft + core correction, Zval =  6.0
     Generated using "atomic" code by A. Dal Corso  v.5.0.2 svn rev. 9415
     Using radial grid of 1151 points,  4 beta functions with: 
                l(1) =   0
                l(2) =   0
                l(3) =   1
                l(4) =   1
     Q(r) pseudized with 0 coefficients 


     PseudoPot. # 3 for O  read from file:
     /home/software/PseudoPotentials/QE/O.pbe-van_ak.UPF
     MD5 check sum: 78c19812648e8988a0fe644b0f25305e
     Pseudo is Ultrasoft, Zval =  6.0
     Generated by new atomic code, or converted to UPF format
     Using radial grid of  737 points,  4 beta functions with: 
                l(1) =   0
                l(2) =   0
                l(3) =   1
                l(4) =   1
     Q(r) pseudized with  8 coefficients,  rinner =    0.800   0.800   0.800


     atomic species   valence    mass     pseudopotential
     Na                9.00    22.98900     Na( 1.00)
     S                 6.00    32.06750     S ( 1.00)
     O                 6.00    15.99900     O ( 1.00)

      2 Sym. Ops., with inversion, found



   Cartesian axes

     site n.     atom                  positions (alat units)
         1        S      tau(   1) = (   0.4233431   0.8249545   0.2932670  )
         2        S      tau(   2) = (   0.1321312   0.0289908   0.9091392  )
         3        Na     tau(   3) = (  -0.0732403   0.2998119   0.2525481  )
         4        Na     tau(   4) = (   0.6287146   0.5541334   0.9498581  )
         5        O      tau(   5) = (   0.4533443  -0.0810064   0.5016282  )
         6        O      tau(   6) = (   0.1021300   0.9349517   0.7007780  )
         7        O      tau(   7) = (   0.6076529   1.0043100   0.1280445  )
         8        O      tau(   8) = (  -0.0521786  -0.1503647   1.0743617  )
         9        O      tau(   9) = (   0.1802567   0.7121764   0.1461878  )
        10        O      tau(  10) = (   0.3752176   0.1417689   1.0562183  )
        11        O      tau(  11) = (   0.5624537   0.6185347   0.4712741  )
        12        O      tau(  12) = (  -0.0069794   0.2354106   0.7311321  )

     number of k points=   106

     Number of k-points >= 100: set verbosity='high' to print them.

     Dense  grid:    22745 G-vectors     FFT dimensions: (  32,  40,  45)

     Estimated max dynamical RAM per process >      36.83 MB

     Estimated total dynamical RAM >     294.67 MB

     Check: negative core charge=   -0.000009

     Initial potential from superposition of free atoms

     starting charge      76.9982, renormalised to      78.0000
     Starting wfcs are   50 randomized atomic wfcs

     total cpu time spent up to now is        2.3 secs

     per-process dynamical memory:    39.0 Mb

     Self-consistent Calculation

     iteration #  1     ecut=    30.00 Ry     beta= 0.30
     Davidson diagonalization with overlap
     ethr =  1.00E-02,  avg # of iterations =  2.0

     total cpu time spent up to now is        8.2 secs

     total energy              =    -494.02161871 Ry
     estimated scf accuracy    <       2.78743977 Ry

     iteration #  2     ecut=    30.00 Ry     beta= 0.30
     Davidson diagonalization with overlap
     ethr =  3.57E-03,  avg # of iterations =  3.0

     total cpu time spent up to now is       14.2 secs

     total energy              =    -494.51632103 Ry
     estimated scf accuracy    <       0.18019859 Ry

     iteration #  3     ecut=    30.00 Ry     beta= 0.30
     Davidson diagonalization with overlap
     ethr =  2.31E-04,  avg # of iterations =  5.0

     total cpu time spent up to now is       22.7 secs

     total energy              =    -494.55168173 Ry
     estimated scf accuracy    <       0.13019096 Ry

     iteration #  4     ecut=    30.00 Ry     beta= 0.30
     Davidson diagonalization with overlap
     ethr =  1.67E-04,  avg # of iterations =  5.0

     total cpu time spent up to now is       30.8 secs

     total energy              =    -494.60310927 Ry
     estimated scf accuracy    <       0.15954393 Ry

     iteration #  5     ecut=    30.00 Ry     beta= 0.30
     Davidson diagonalization with overlap
     ethr =  1.67E-04,  avg # of iterations =  2.0

     total cpu time spent up to now is       35.6 secs

     total energy              =    -494.58973988 Ry
     estimated scf accuracy    <       0.06049481 Ry

     iteration #  6     ecut=    30.00 Ry     beta= 0.30
     Davidson diagonalization with overlap
     ethr =  7.76E-05,  avg # of iterations =  3.3

     total cpu time spent up to now is       41.4 secs

     total energy              =    -494.59768214 Ry
     estimated scf accuracy    <       0.00370747 Ry

     iteration #  7     ecut=    30.00 Ry     beta= 0.30
     Davidson diagonalization with overlap
     ethr =  4.75E-06,  avg # of iterations =  4.8

     total cpu time spent up to now is       48.9 secs

     total energy              =    -494.59932204 Ry
     estimated scf accuracy    <       0.00026729 Ry

     iteration #  8     ecut=    30.00 Ry     beta= 0.30
     Davidson diagonalization with overlap
     ethr =  3.43E-07,  avg # of iterations =  3.2

     total cpu time spent up to now is       55.1 secs

     total energy              =    -494.59937379 Ry
     estimated scf accuracy    <       0.00006599 Ry

     iteration #  9     ecut=    30.00 Ry     beta= 0.30
     Davidson diagonalization with overlap
     ethr =  8.46E-08,  avg # of iterations =  2.0

     total cpu time spent up to now is       60.5 secs

     total energy              =    -494.59937120 Ry
     estimated scf accuracy    <       0.00002145 Ry

     iteration # 10     ecut=    30.00 Ry     beta= 0.30
     Davidson diagonalization with overlap
     ethr =  2.75E-08,  avg # of iterations =  3.2

     total cpu time spent up to now is       67.2 secs

     total energy              =    -494.59937762 Ry
     estimated scf accuracy    <       0.00000345 Ry

     iteration # 11     ecut=    30.00 Ry     beta= 0.30
     Davidson diagonalization with overlap
     ethr =  4.43E-09,  avg # of iterations =  5.1

     total cpu time spent up to now is       74.9 secs

     total energy              =    -494.59937695 Ry
     estimated scf accuracy    <       0.00000853 Ry

     iteration # 12     ecut=    30.00 Ry     beta= 0.30
     Davidson diagonalization with overlap
     ethr =  4.43E-09,  avg # of iterations =  3.4

     total cpu time spent up to now is       81.0 secs

     total energy              =    -494.59937695 Ry
     estimated scf accuracy    <       0.00000142 Ry

     iteration # 13     ecut=    30.00 Ry     beta= 0.30
     Davidson diagonalization with overlap
     ethr =  1.82E-09,  avg # of iterations =  3.2

     total cpu time spent up to now is       88.1 secs

     total energy              =    -494.59937749 Ry
     estimated scf accuracy    <       0.00000010 Ry

     iteration # 14     ecut=    30.00 Ry     beta= 0.30
     Davidson diagonalization with overlap
     ethr =  1.32E-10,  avg # of iterations =  4.4

     total cpu time spent up to now is       94.4 secs

     total energy              =    -494.59937748 Ry
     estimated scf accuracy    <       0.00000007 Ry

     iteration # 15     ecut=    30.00 Ry     beta= 0.30
     Davidson diagonalization with overlap
     ethr =  9.04E-11,  avg # of iterations =  4.1

     total cpu time spent up to now is      101.0 secs

     total energy              =    -494.59937750 Ry
     estimated scf accuracy    <          7.2E-09 Ry

     iteration # 16     ecut=    30.00 Ry     beta= 0.30
     Davidson diagonalization with overlap
     ethr =  9.23E-12,  avg # of iterations =  3.9

     total cpu time spent up to now is      107.2 secs

     total energy              =    -494.59937750 Ry
     estimated scf accuracy    <          4.4E-10 Ry

     iteration # 17     ecut=    30.00 Ry     beta= 0.30
     Davidson diagonalization with overlap
     ethr =  5.68E-13,  avg # of iterations =  5.5

     total cpu time spent up to now is      116.7 secs

     total energy              =    -494.59937750 Ry
     estimated scf accuracy    <          1.1E-09 Ry

     iteration # 18     ecut=    30.00 Ry     beta= 0.30
     Davidson diagonalization with overlap
     ethr =  5.68E-13,  avg # of iterations =  3.0

     total cpu time spent up to now is      123.0 secs

     total energy              =    -494.59937750 Ry
     estimated scf accuracy    <          1.7E-10 Ry

     iteration # 19     ecut=    30.00 Ry     beta= 0.30
     Davidson diagonalization with overlap
     ethr =  2.17E-13,  avg # of iterations =  3.0

     total cpu time spent up to now is      130.0 secs

     End of self-consistent calculation

     Number of k-points >= 100: set verbosity='high' to print the bands.

     highest occupied level (ev):     2.5691

!    total energy              =    -494.59937750 Ry
     estimated scf accuracy    <          1.7E-11 Ry

     The total energy is the sum of the following terms:
     one-electron contribution =    -281.84715092 Ry
     hartree contribution      =     176.16160458 Ry
     xc contribution           =    -100.12095251 Ry
     ewald contribution        =    -288.79287865 Ry

     convergence has been achieved in  19 iterations

     Forces acting on atoms (cartesian axes, Ry/au):

     atom    1 type  2   force =     0.00000659    0.00000360    0.00000245
     atom    2 type  2   force =    -0.00000659   -0.00000360   -0.00000245
     atom    3 type  1   force =     0.00000177   -0.00001621   -0.00000836
     atom    4 type  1   force =    -0.00000177    0.00001621    0.00000836
     atom    5 type  3   force =    -0.00000996    0.00000927   -0.00000459
     atom    6 type  3   force =     0.00000996   -0.00000927    0.00000459
     atom    7 type  3   force =     0.00001189   -0.00000841    0.00000244
     atom    8 type  3   force =    -0.00001189    0.00000841   -0.00000244
     atom    9 type  3   force =    -0.00000632    0.00000629    0.00000836
     atom   10 type  3   force =     0.00000632   -0.00000629   -0.00000836
     atom   11 type  3   force =     0.00000503   -0.00000754   -0.00000697
     atom   12 type  3   force =    -0.00000503    0.00000754    0.00000697

     Total force =     0.000047     Total SCF correction =     0.000014
     SCF correction compared to forces is large: reduce conv_thr to get better values


     Computing stress (Cartesian axis) and pressure

          total   stress  (Ry/bohr**3)                   (kbar)     P=       19.66
   0.00012467  -0.00000457  -0.00000649           18.34       -0.67       -0.95
  -0.00000457   0.00012410   0.00002348           -0.67       18.26        3.45
  -0.00000649   0.00002348   0.00015220           -0.95        3.45       22.39


     Writing all to output data dir ./pwscf.save/ :
     XML data file, charge density, pseudopotentials, collected wavefunctions

     init_run     :      2.18s CPU      2.22s WALL (       1 calls)
     electrons    :    125.88s CPU    127.62s WALL (       1 calls)
     forces       :      1.08s CPU      1.10s WALL (       1 calls)
     stress       :      4.50s CPU      4.52s WALL (       1 calls)

     Called by init_run:
     wfcinit      :      2.03s CPU      2.08s WALL (       1 calls)
     potinit      :      0.01s CPU      0.01s WALL (       1 calls)
     hinit0       :      0.11s CPU      0.12s WALL (       1 calls)

     Called by electrons:
     c_bands      :    116.09s CPU    117.62s WALL (      19 calls)
     sum_band     :      9.43s CPU      9.63s WALL (      19 calls)
     v_of_rho     :      0.05s CPU      0.05s WALL (      20 calls)
     newd         :      0.30s CPU      0.31s WALL (      20 calls)
     mix_rho      :      0.02s CPU      0.02s WALL (      19 calls)

     Called by c_bands:
     init_us_2    :      1.35s CPU      1.37s WALL (    4346 calls)
     cegterg      :    113.74s CPU    115.23s WALL (    2014 calls)

     Called by *egterg:
     cdiaghg      :     15.79s CPU     15.88s WALL (    9323 calls)
     h_psi        :     53.22s CPU     54.33s WALL (    9429 calls)
     s_psi        :     12.73s CPU     12.79s WALL (    9429 calls)
     g_psi        :      0.26s CPU      0.26s WALL (    7309 calls)

     Called by h_psi:
     h_psi:calbec :     14.48s CPU     14.82s WALL (    9429 calls)
     vloc_psi     :     25.42s CPU     26.13s WALL (    9429 calls)
     add_vuspsi   :     12.84s CPU     12.90s WALL (    9429 calls)

     General routines
     calbec       :     19.75s CPU     20.20s WALL (   11973 calls)
     fft          :      0.10s CPU      0.10s WALL (     245 calls)
     ffts         :      0.00s CPU      0.00s WALL (      19 calls)
     fftw         :     25.16s CPU     25.85s WALL (  551232 calls)

     Parallel routines

     PWSCF        :   2m13.88s CPU   2m15.80s WALL


   This run was terminated on:  17:18:57  11Aug2024            

=------------------------------------------------------------------------------=
   JOB DONE.
=------------------------------------------------------------------------------=
