
.Version 10.0.7.1 of ABINIT, released Jun 2024.
.(MPI version, prepared for a x86_64_linux_gnu14.1 computer) 

.Copyright (C) 1998-2024 ABINIT group . 
 ABINIT comes with ABSOLUTELY NO WARRANTY.
 It is free software, and you are welcome to redistribute it
 under certain conditions (GNU General Public License,
 see ~abinit/COPYING or http://www.gnu.org/copyleft/gpl.txt).

 ABINIT is a project of the Universite Catholique de Louvain,
 Corning Inc. and other collaborators, see ~abinit/doc/developers/contributors.txt .
 Please read https://docs.abinit.org/theory/acknowledgments for suggested
 acknowledgments of the ABINIT effort.
 For more information, see https://www.abinit.org .

.Starting date : Mon 15 Jul 2024.
- ( at 15h09 )
  
- input  file    -> AlAs.abi
- output file    -> AlAs.abo
- root for input  files -> AlAsi
- root for output files -> AlAso

 DATASET    1 : space group F-4 3 m (#216); Bravais cF (face-center cubic)
================================================================================
 Values of the parameters that define the memory need for DATASET  1.
     intxc =       0    ionmov =       0      iscf =       5    lmnmax =       3
     lnmax =       3     mgfft =      12  mpssoang =       3    mqgrid =    3001
     natom =       2  nloc_mem =       1    nspden =       1   nspinor =       1
    nsppol =       1      nsym =      24    n1xccc =    2501    ntypat =       2
    occopt =       1   xclevel =       1
-    mband =           4        mffmem =           1         mkmem =          10
       mpw =          77          nfft =        1728          nkpt =          10
================================================================================
P This job should need less than                       1.422 Mbytes of memory.
  Rough estimation (10% accuracy) of disk space for files :
_ WF disk file :      0.049 Mbytes ; DEN or POT disk file :      0.015 Mbytes.
================================================================================

 DATASET    2 : space group F-4 3 m (#216); Bravais cF (face-center cubic)
================================================================================
 Values of the parameters that define the memory need for DATASET  2 (RF).
     intxc =       0      iscf =      -3    lmnmax =       3     lnmax =       3
     mgfft =      12  mpssoang =       3    mqgrid =    3001     natom =       2
  nloc_mem =       1    nspden =       1   nspinor =       1    nsppol =       1
      nsym =      24    n1xccc =    2501    ntypat =       2    occopt =       1
   xclevel =       1
-    mband =           4        mffmem =           1         mkmem =         128
-   mkqmem =         128        mk1mem =         128           mpw =          77
      nfft =        1728          nkpt =         128
================================================================================
P This job should need less than                       3.350 Mbytes of memory.
  Rough estimation (10% accuracy) of disk space for files :
_ WF disk file :      0.604 Mbytes ; DEN or POT disk file :      0.015 Mbytes.
================================================================================

 DATASET    3 : space group F-4 3 m (#216); Bravais cF (face-center cubic)
================================================================================
 Values of the parameters that define the memory need for DATASET  3 (RF).
     intxc =       0      iscf =       5    lmnmax =       3     lnmax =       3
     mgfft =      12  mpssoang =       3    mqgrid =    3001     natom =       2
  nloc_mem =       1    nspden =       1   nspinor =       1    nsppol =       1
      nsym =      24    n1xccc =    2501    ntypat =       2    occopt =       1
   xclevel =       1
-    mband =           4        mffmem =           1         mkmem =         128
-   mkqmem =         128        mk1mem =         128           mpw =          77
      nfft =        1728          nkpt =         128
================================================================================
P This job should need less than                       3.481 Mbytes of memory.
  Rough estimation (10% accuracy) of disk space for files :
_ WF disk file :      0.604 Mbytes ; DEN or POT disk file :      0.015 Mbytes.
================================================================================

--------------------------------------------------------------------------------
------------- Echo of variables that govern the present computation ------------
--------------------------------------------------------------------------------
-
- outvars: echo of selected default values                                      
-   iomode0 =  0 , fftalg0 =112 , wfoptalg0 =  0
-
- outvars: echo of global parameters not present in the input file              
-  max_nthreads =    0
-
 -outvars: echo values of preprocessed input variables --------
            acell      1.0610000000E+01  1.0610000000E+01  1.0610000000E+01 Bohr
              amu      2.69815390E+01  7.49215900E+01
           diemac      9.00000000E+00
             ecut      3.00000000E+00 Hartree
-          fftalg         112
           getddk1          0
           getddk2          0
           getddk3          2
           getwfk1          0
           getwfk2          1
           getwfk3          1
             iscf1          5
             iscf2         -3
             iscf3          5
           jdtset        1    2    3
              kpt1    -1.25000000E-01 -2.50000000E-01  0.00000000E+00
                      -1.25000000E-01  5.00000000E-01  0.00000000E+00
                      -2.50000000E-01 -3.75000000E-01  0.00000000E+00
                      -1.25000000E-01 -3.75000000E-01  1.25000000E-01
                      -1.25000000E-01  2.50000000E-01  0.00000000E+00
                      -2.50000000E-01  3.75000000E-01  0.00000000E+00
                      -3.75000000E-01  5.00000000E-01  0.00000000E+00
                      -2.50000000E-01  5.00000000E-01  1.25000000E-01
                      -1.25000000E-01  0.00000000E+00  0.00000000E+00
                      -3.75000000E-01  0.00000000E+00  0.00000000E+00
              kpt2    -1.25000000E-01 -2.50000000E-01  0.00000000E+00
                      -2.50000000E-01 -1.25000000E-01  0.00000000E+00
                      -1.25000000E-01 -1.25000000E-01  1.25000000E-01
                      -1.25000000E-01  5.00000000E-01  0.00000000E+00
                      -2.50000000E-01 -3.75000000E-01  0.00000000E+00
                      -1.25000000E-01 -3.75000000E-01  1.25000000E-01
                      -3.75000000E-01 -2.50000000E-01  0.00000000E+00
                      -2.50000000E-01 -2.50000000E-01  1.25000000E-01
                      -1.25000000E-01 -2.50000000E-01  2.50000000E-01
                       5.00000000E-01 -1.25000000E-01  0.00000000E+00
                      -3.75000000E-01 -1.25000000E-01  1.25000000E-01
                      -2.50000000E-01 -1.25000000E-01  2.50000000E-01
                      -1.25000000E-01 -1.25000000E-01  3.75000000E-01
                      -1.25000000E-01  2.50000000E-01  0.00000000E+00
                      -2.50000000E-01  3.75000000E-01  0.00000000E+00
                      -1.25000000E-01  3.75000000E-01  1.25000000E-01
                      -3.75000000E-01  5.00000000E-01  0.00000000E+00
                      -2.50000000E-01  5.00000000E-01  1.25000000E-01
                      -1.25000000E-01  5.00000000E-01  2.50000000E-01
                       5.00000000E-01 -3.75000000E-01  0.00000000E+00
                      -3.75000000E-01 -3.75000000E-01  1.25000000E-01
                      -2.50000000E-01 -3.75000000E-01  2.50000000E-01
                      -1.25000000E-01 -3.75000000E-01  3.75000000E-01
                       3.75000000E-01 -2.50000000E-01  0.00000000E+00
                       5.00000000E-01 -2.50000000E-01  1.25000000E-01
                      -3.75000000E-01 -2.50000000E-01  2.50000000E-01
                      -2.50000000E-01 -2.50000000E-01  3.75000000E-01
                      -1.25000000E-01 -2.50000000E-01  5.00000000E-01
                       2.50000000E-01 -1.25000000E-01  0.00000000E+00
                       3.75000000E-01 -1.25000000E-01  1.25000000E-01
                       5.00000000E-01 -1.25000000E-01  2.50000000E-01
                      -3.75000000E-01 -1.25000000E-01  3.75000000E-01
                      -2.50000000E-01 -1.25000000E-01  5.00000000E-01
                      -1.25000000E-01 -1.25000000E-01 -3.75000000E-01
                      -1.25000000E-01  0.00000000E+00  0.00000000E+00
                      -1.25000000E-01  1.25000000E-01  1.25000000E-01
                      -2.50000000E-01  2.50000000E-01  1.25000000E-01
                      -1.25000000E-01  2.50000000E-01  2.50000000E-01
                      -3.75000000E-01  3.75000000E-01  1.25000000E-01
                      -2.50000000E-01  3.75000000E-01  2.50000000E-01
                      -1.25000000E-01  3.75000000E-01  3.75000000E-01
                       5.00000000E-01  5.00000000E-01  1.25000000E-01
                      -3.75000000E-01  5.00000000E-01  2.50000000E-01
                      -2.50000000E-01  5.00000000E-01  3.75000000E-01
                      -1.25000000E-01  5.00000000E-01  5.00000000E-01
                       3.75000000E-01 -3.75000000E-01  1.25000000E-01
                       5.00000000E-01 -3.75000000E-01  2.50000000E-01
                      -3.75000000E-01 -3.75000000E-01  3.75000000E-01
                      -2.50000000E-01 -3.75000000E-01  5.00000000E-01
                      -1.25000000E-01 -3.75000000E-01 -3.75000000E-01
              kpt3    -1.25000000E-01 -2.50000000E-01  0.00000000E+00
                      -2.50000000E-01 -1.25000000E-01  0.00000000E+00
                      -1.25000000E-01 -1.25000000E-01  1.25000000E-01
                      -1.25000000E-01  5.00000000E-01  0.00000000E+00
                      -2.50000000E-01 -3.75000000E-01  0.00000000E+00
                      -1.25000000E-01 -3.75000000E-01  1.25000000E-01
                      -3.75000000E-01 -2.50000000E-01  0.00000000E+00
                      -2.50000000E-01 -2.50000000E-01  1.25000000E-01
                      -1.25000000E-01 -2.50000000E-01  2.50000000E-01
                       5.00000000E-01 -1.25000000E-01  0.00000000E+00
                      -3.75000000E-01 -1.25000000E-01  1.25000000E-01
                      -2.50000000E-01 -1.25000000E-01  2.50000000E-01
                      -1.25000000E-01 -1.25000000E-01  3.75000000E-01
                      -1.25000000E-01  2.50000000E-01  0.00000000E+00
                      -2.50000000E-01  3.75000000E-01  0.00000000E+00
                      -1.25000000E-01  3.75000000E-01  1.25000000E-01
                      -3.75000000E-01  5.00000000E-01  0.00000000E+00
                      -2.50000000E-01  5.00000000E-01  1.25000000E-01
                      -1.25000000E-01  5.00000000E-01  2.50000000E-01
                       5.00000000E-01 -3.75000000E-01  0.00000000E+00
                      -3.75000000E-01 -3.75000000E-01  1.25000000E-01
                      -2.50000000E-01 -3.75000000E-01  2.50000000E-01
                      -1.25000000E-01 -3.75000000E-01  3.75000000E-01
                       3.75000000E-01 -2.50000000E-01  0.00000000E+00
                       5.00000000E-01 -2.50000000E-01  1.25000000E-01
                      -3.75000000E-01 -2.50000000E-01  2.50000000E-01
                      -2.50000000E-01 -2.50000000E-01  3.75000000E-01
                      -1.25000000E-01 -2.50000000E-01  5.00000000E-01
                       2.50000000E-01 -1.25000000E-01  0.00000000E+00
                       3.75000000E-01 -1.25000000E-01  1.25000000E-01
                       5.00000000E-01 -1.25000000E-01  2.50000000E-01
                      -3.75000000E-01 -1.25000000E-01  3.75000000E-01
                      -2.50000000E-01 -1.25000000E-01  5.00000000E-01
                      -1.25000000E-01 -1.25000000E-01 -3.75000000E-01
                      -1.25000000E-01  0.00000000E+00  0.00000000E+00
                      -1.25000000E-01  1.25000000E-01  1.25000000E-01
                      -2.50000000E-01  2.50000000E-01  1.25000000E-01
                      -1.25000000E-01  2.50000000E-01  2.50000000E-01
                      -3.75000000E-01  3.75000000E-01  1.25000000E-01
                      -2.50000000E-01  3.75000000E-01  2.50000000E-01
                      -1.25000000E-01  3.75000000E-01  3.75000000E-01
                       5.00000000E-01  5.00000000E-01  1.25000000E-01
                      -3.75000000E-01  5.00000000E-01  2.50000000E-01
                      -2.50000000E-01  5.00000000E-01  3.75000000E-01
                      -1.25000000E-01  5.00000000E-01  5.00000000E-01
                       3.75000000E-01 -3.75000000E-01  1.25000000E-01
                       5.00000000E-01 -3.75000000E-01  2.50000000E-01
                      -3.75000000E-01 -3.75000000E-01  3.75000000E-01
                      -2.50000000E-01 -3.75000000E-01  5.00000000E-01
                      -1.25000000E-01 -3.75000000E-01 -3.75000000E-01
                       outvar_i_n : Printing only first  50 k-points.
           kptopt1          1
           kptopt2          2
           kptopt3          2
         kptrlatt        4   -4    4     -4    4    4     -4   -4    4
          kptrlen      4.24400000E+01
P           mkmem1         10
P           mkmem2        128
P           mkmem3        128
P          mkqmem1         10
P          mkqmem2        128
P          mkqmem3        128
P          mk1mem1         10
P          mk1mem2        128
P          mk1mem3        128
            natom           2
            nband1          4
            nband2          4
            nband3          4
           ndtset           3
            ngfft          12      12      12
             nkpt1         10
             nkpt2        128
             nkpt3        128
             nqpt1          0
             nqpt2          1
             nqpt3          1
            nstep          25
             nsym          24
           ntypat           2
              occ1     2.000000  2.000000  2.000000  2.000000
              occ2     2.000000  2.000000  2.000000  2.000000
              occ3     2.000000  2.000000  2.000000  2.000000
        optdriver1          0
        optdriver2          1
        optdriver3          1
        optforces           1
           prtpot1          0
           prtpot2          1
           prtpot3          1
           rfelfd1          0
           rfelfd2          2
           rfelfd3          3
           rfphon1          0
           rfphon2          0
           rfphon3          1
            rprim      0.0000000000E+00  5.0000000000E-01  5.0000000000E-01
                       5.0000000000E-01  0.0000000000E+00  5.0000000000E-01
                       5.0000000000E-01  5.0000000000E-01  0.0000000000E+00
           shiftk      5.00000000E-01  5.00000000E-01  5.00000000E-01
          spgroup         216
           symrel      1  0  0   0  1  0   0  0  1       0 -1  1   0 -1  0   1 -1  0
                      -1  0  0  -1  0  1  -1  1  0       0  1 -1   1  0 -1   0  0 -1
                      -1  0  0  -1  1  0  -1  0  1       0 -1  1   1 -1  0   0 -1  0
                       1  0  0   0  0  1   0  1  0       0  1 -1   0  0 -1   1  0 -1
                      -1  0  1  -1  1  0  -1  0  0       0 -1  0   1 -1  0   0 -1  1
                       1  0 -1   0  0 -1   0  1 -1       0  1  0   0  0  1   1  0  0
                       1  0 -1   0  1 -1   0  0 -1       0 -1  0   0 -1  1   1 -1  0
                      -1  0  1  -1  0  0  -1  1  0       0  1  0   1  0  0   0  0  1
                       0  0 -1   0  1 -1   1  0 -1       1 -1  0   0 -1  1   0 -1  0
                       0  0  1   1  0  0   0  1  0      -1  1  0  -1  0  0  -1  0  1
                       0  0  1   0  1  0   1  0  0       1 -1  0   0 -1  0   0 -1  1
                       0  0 -1   1  0 -1   0  1 -1      -1  1  0  -1  0  1  -1  0  0
           tolvrs1     1.00000000E-18
           tolvrs2     0.00000000E+00
           tolvrs3     1.00000000E-08
           tolwfr1     0.00000000E+00
           tolwfr2     1.00000000E-22
           tolwfr3     0.00000000E+00
            typat      1  2
              wtk1       0.09375    0.09375    0.09375    0.18750    0.09375    0.09375
                         0.09375    0.18750    0.03125    0.03125
              wtk2       0.00781    0.00781    0.00781    0.00781    0.00781    0.00781
                         0.00781    0.00781    0.00781    0.00781    0.00781    0.00781
                         0.00781    0.00781    0.00781    0.00781    0.00781    0.00781
                         0.00781    0.00781    0.00781    0.00781    0.00781    0.00781
                         0.00781    0.00781    0.00781    0.00781    0.00781    0.00781
                         0.00781    0.00781    0.00781    0.00781    0.00781    0.00781
                         0.00781    0.00781    0.00781    0.00781    0.00781    0.00781
                         0.00781    0.00781    0.00781    0.00781    0.00781    0.00781
                         0.00781    0.00781
              wtk3       0.00781    0.00781    0.00781    0.00781    0.00781    0.00781
                         0.00781    0.00781    0.00781    0.00781    0.00781    0.00781
                         0.00781    0.00781    0.00781    0.00781    0.00781    0.00781
                         0.00781    0.00781    0.00781    0.00781    0.00781    0.00781
                         0.00781    0.00781    0.00781    0.00781    0.00781    0.00781
                         0.00781    0.00781    0.00781    0.00781    0.00781    0.00781
                         0.00781    0.00781    0.00781    0.00781    0.00781    0.00781
                         0.00781    0.00781    0.00781    0.00781    0.00781    0.00781
                         0.00781    0.00781
                       outvars : Printing only first  50 k-points.
           xangst      0.0000000000E+00  0.0000000000E+00  0.0000000000E+00
                       1.4036425458E+00  1.4036425458E+00  1.4036425458E+00
            xcart      0.0000000000E+00  0.0000000000E+00  0.0000000000E+00
                       2.6525000000E+00  2.6525000000E+00  2.6525000000E+00
             xred      0.0000000000E+00  0.0000000000E+00  0.0000000000E+00
                       2.5000000000E-01  2.5000000000E-01  2.5000000000E-01
            znucl       13.00000   33.00000

================================================================================

 chkinp: Checking input parameters for consistency, jdtset=   1.

 chkinp: Checking input parameters for consistency, jdtset=   2.

 chkinp: Checking input parameters for consistency, jdtset=   3.

================================================================================
== DATASET  1 ==================================================================
-   mpi_nproc: 1, omp_nthreads: -1 (-1 if OMP is not activated)


--- !DatasetInfo
iteration_state: {dtset: 1, }
dimensions: {natom: 2, nkpt: 10, mband: 4, nsppol: 1, nspinor: 1, nspden: 1, mpw: 77, }
cutoff_energies: {ecut:   3.0, pawecutdg:  -1.0, }
electrons: {nelect:   8.00000000E+00, charge:   0.00000000E+00, occopt:   1.00000000E+00, tsmear:   1.00000000E-02, }
meta: {optdriver: 0, ionmov: 0, optcell: 0, iscf: 5, paral_kgb: 0, }
...

 Exchange-correlation functional for the present dataset will be:
  LDA: new Teter (4/93) with spin-polarized option - ixc=1
 Citation for XC functional:
  S. Goedecker, M. Teter, J. Huetter, PRB 54, 1703 (1996)

 Real(R)+Recip(G) space primitive vectors, cartesian coordinates (Bohr,Bohr^-1):
 R(1)=  0.0000000  5.3050000  5.3050000  G(1)= -0.0942507  0.0942507  0.0942507
 R(2)=  5.3050000  0.0000000  5.3050000  G(2)=  0.0942507 -0.0942507  0.0942507
 R(3)=  5.3050000  5.3050000  0.0000000  G(3)=  0.0942507  0.0942507 -0.0942507
 Unit cell volume ucvol=  2.9859750E+02 bohr^3
 Angles (23,13,12)=  6.00000000E+01  6.00000000E+01  6.00000000E+01 degrees

 getcut: wavevector=  0.0000  0.0000  0.0000  ngfft=  12  12  12
         ecut(hartree)=      3.000   => boxcut(ratio)=   2.05142

--- Pseudopotential description ------------------------------------------------
- pspini: atom type   1  psp file is /home/john/Software/AbInit/abinit-8.10.3/tests/Psps_for_tests/13al.981214.fhi
- pspatm: opening atomic psp file    /home/john/Software/AbInit/abinit-8.10.3/tests/Psps_for_tests/13al.981214.fhi
- Aluminum, fhi98PP : Hamann-type, LDA CA PerdewWang, l=2 local
- 13.00000   3.00000    981214                znucl, zion, pspdat
    6    7    2    2       493   0.00000      pspcod,pspxc,lmax,lloc,mmax,r2well
  No XC core correction.
  1.024700          amesh (Hamman grid)
  pspatm : epsatm=    1.36305739
         --- l  ekb(1:nproj) -->
             0    1.768744
             1    0.900554
 pspatm: atomic psp has been read  and splines computed

- pspini: atom type   2  psp file is /home/john/Software/AbInit/abinit-8.10.3/tests/Psps_for_tests/33as.pspnc
- pspatm: opening atomic psp file    /home/john/Software/AbInit/abinit-8.10.3/tests/Psps_for_tests/33as.pspnc
-  Troullier-Martins psp for element  As        Thu Oct 27 17:37:14 EDT 1994
- 33.00000   5.00000    940714                znucl, zion, pspdat
    1    1    1    1      2001   0.00000      pspcod,pspxc,lmax,lloc,mmax,r2well
    0   4.772  10.829    1   2.5306160        l,e99.0,e99.9,nproj,rcpsp
   0.00000000   0.00000000   0.00000000   0.00000000     rms, ekb1, ekb2, epsatm
    1   2.745   5.580    0   2.5306160        l,e99.0,e99.9,nproj,rcpsp
   0.00000000   0.00000000   0.00000000   0.00000000     rms, ekb1, ekb2, epsatm
    2.05731715564010    0.36322996461007    2.76014815959125   rchrg,fchrg,qchrg
  pspatm : epsatm=   27.20579911
         --- l  ekb(1:nproj) -->
             0    0.838751
 pspatm: atomic psp has been read  and splines computed

   2.28550852E+02                                ecore*ucvol(ha*bohr**3)
--------------------------------------------------------------------------------

_setup2: Arith. and geom. avg. npw (full set) are      74.469      74.418

================================================================================

--- !BeginCycle
iteration_state: {dtset: 1, }
solver: {iscf: 5, nstep: 25, nline: 4, wfoptalg: 0, }
tolerances: {tolvrs: 1.00E-18, }
...

     iter   Etot(hartree)      deltaE(h)  residm     vres2    diffor    maxfor
 ETOT  1  -9.7584531327339    -9.758E+00 4.240E-04 9.217E-01 0.000E+00 0.000E+00
 ETOT  2  -9.7624309507024    -3.978E-03 2.209E-10 5.230E-02 2.416E-28 2.416E-28
 ETOT  3  -9.7625319724432    -1.010E-04 6.876E-07 4.350E-02 2.082E-28 5.859E-29
 ETOT  4  -9.7626759839342    -1.440E-04 8.801E-07 2.783E-03 6.339E-29 4.802E-30
 ETOT  5  -9.7626832888967    -7.305E-06 6.248E-08 1.762E-04 5.587E-30 7.849E-31
 ETOT  6  -9.7626836930129    -4.041E-07 2.665E-09 2.118E-05 5.880E-30 6.345E-30
 ETOT  7  -9.7626837414863    -4.847E-08 4.868E-10 1.492E-06 6.097E-30 2.478E-31
 ETOT  8  -9.7626837445780    -3.092E-09 1.814E-11 1.880E-07 4.461E-31 2.974E-31
 ETOT  9  -9.7626837449748    -3.968E-10 3.575E-12 1.432E-08 2.974E-31 0.000E+00
 ETOT 10  -9.7626837450014    -2.659E-11 1.305E-13 1.869E-09 0.000E+00 0.000E+00
 ETOT 11  -9.7626837450050    -3.581E-12 2.686E-14 1.569E-10 0.000E+00 0.000E+00
 ETOT 12  -9.7626837450052    -2.824E-13 9.718E-16 2.105E-11 0.000E+00 0.000E+00
 ETOT 13  -9.7626837450052     8.882E-15 1.261E-17 1.470E-11 0.000E+00 0.000E+00
 ETOT 14  -9.7626837450053    -6.217E-14 3.753E-16 1.047E-12 6.738E-32 6.738E-32
 ETOT 15  -9.7626837450053     1.776E-15 1.297E-17 5.870E-15 6.970E-33 7.435E-32
 ETOT 16  -9.7626837450053     2.309E-14 4.313E-20 4.780E-17 1.425E-31 6.815E-32
 ETOT 17  -9.7626837450053    -3.908E-14 6.949E-22 5.335E-18 6.815E-32 0.000E+00
 ETOT 18  -9.7626837450053     3.020E-14 2.074E-22 3.636E-19 6.196E-32 6.196E-32

 At SCF step   18       vres2   =  3.64E-19 < tolvrs=  1.00E-18 =>converged.

 Cartesian components of stress tensor (hartree/bohr^3)
  sigma(1 1)=  2.88203316E-04  sigma(3 2)=  0.00000000E+00
  sigma(2 2)=  2.88203316E-04  sigma(3 1)=  0.00000000E+00
  sigma(3 3)=  2.88203316E-04  sigma(2 1)=  0.00000000E+00


--- !ResultsGS
iteration_state: {dtset: 1, }
comment   : Summary of ground state results
lattice_vectors:
- [  0.0000000,   5.3050000,   5.3050000, ]
- [  5.3050000,   0.0000000,   5.3050000, ]
- [  5.3050000,   5.3050000,   0.0000000, ]
lattice_lengths: [   7.50240,    7.50240,    7.50240, ]
lattice_angles: [ 60.000,  60.000,  60.000, ] # degrees, (23, 13, 12)
lattice_volume:   2.9859750E+02
convergence: {deltae:  3.020E-14, res2:  3.636E-19, residm:  2.074E-22, diffor:  6.196E-32, }
etotal    :  -9.76268375E+00
entropy   :   0.00000000E+00
fermie    :   7.88413810E-02
cartesian_stress_tensor: # hartree/bohr^3
- [  2.88203316E-04,   0.00000000E+00,   0.00000000E+00, ]
- [  0.00000000E+00,   2.88203316E-04,   0.00000000E+00, ]
- [  0.00000000E+00,   0.00000000E+00,   2.88203316E-04, ]
pressure_GPa:  -8.4792E+00
xred      :
- [  0.0000E+00,   0.0000E+00,   0.0000E+00, Al]
- [  2.5000E-01,   2.5000E-01,   2.5000E-01, As]
cartesian_forces: # hartree/bohr
- [  6.19589150E-32,  -6.19589150E-32,   6.19589150E-32, ]
- [ -6.19589150E-32,   6.19589150E-32,  -6.19589150E-32, ]
force_length_stats: {min:   1.07315989E-31, max:   1.07315989E-31, mean:   1.07315989E-31, }
...

 Integrated electronic density in atomic spheres:
 ------------------------------------------------
 Atom  Sphere_radius  Integrated_density
    1        2.00000          0.89134261
    2        2.00000          2.49686181
================================================================================

 ----iterations are completed or convergence reached----

 Mean square residual over all n,k,spin=   57.064E-24; max=  20.736E-23
 reduced coordinates (array xred) for    2 atoms
       0.000000000000      0.000000000000      0.000000000000
       0.250000000000      0.250000000000      0.250000000000
 rms dE/dt=  5.3675E-31; max dE/dt=  1.3148E-30; dE/dt below (all hartree)
    1       0.000000000000      0.000000000000      0.000000000000
    2       0.000000000000      0.000000000000      0.000000000000

 cartesian coordinates (angstrom) at end:
    1      0.00000000000000     0.00000000000000     0.00000000000000
    2      1.40364254578497     1.40364254578497     1.40364254578497

 cartesian forces (hartree/bohr) at end:
    1      0.00000000000000    -0.00000000000000     0.00000000000000
    2     -0.00000000000000     0.00000000000000    -0.00000000000000
 frms,max,avg= 6.1958915E-32 6.1958915E-32   0.000E+00  0.000E+00  0.000E+00 h/b

 cartesian forces (eV/Angstrom) at end:
    1      0.00000000000000    -0.00000000000000     0.00000000000000
    2     -0.00000000000000     0.00000000000000    -0.00000000000000
 frms,max,avg= 3.1860552E-30 3.1860552E-30   0.000E+00  0.000E+00  0.000E+00 e/A
 length scales= 10.610000000000 10.610000000000 10.610000000000 bohr
              =  5.614570183140  5.614570183140  5.614570183140 angstroms
 prteigrs : about to open file AlAso_DS1_EIG
 Fermi (or HOMO) energy (hartree) =   0.07884   Average Vxc (hartree)=  -0.33469
 Eigenvalues (hartree) for nkpt=  10  k points:
 kpt#   1, nband=  4, wtk=  0.09375, kpt= -0.1250 -0.2500  0.0000 (reduced coord)
  -0.33314   -0.02143    0.05015    0.05249
 prteigrs : prtvol=0 or 1, do not print more k-points.


--- !EnergyTerms
iteration_state     : {dtset: 1, }
comment             : Components of total free energy in Hartree
kinetic             :  2.91979677009953E+00
hartree             :  7.88574634451716E-01
xc                  : -3.93301606013622E+00
Ewald energy        : -8.47989583509473E+00
psp_core            :  7.65414498117480E-01
local_psp           : -2.41963687677614E+00
non_local_psp       :  5.96079124333070E-01
total_energy        : -9.76268374500529E+00
total_energy_eV     : -2.65656134889121E+02
band_energy         : -7.13535527970432E-01
...


 Cartesian components of stress tensor (hartree/bohr^3)
  sigma(1 1)=  2.88203316E-04  sigma(3 2)=  0.00000000E+00
  sigma(2 2)=  2.88203316E-04  sigma(3 1)=  0.00000000E+00
  sigma(3 3)=  2.88203316E-04  sigma(2 1)=  0.00000000E+00

-Cartesian components of stress tensor (GPa)         [Pressure= -8.4792E+00 GPa]
- sigma(1 1)=  8.47923288E+00  sigma(3 2)=  0.00000000E+00
- sigma(2 2)=  8.47923288E+00  sigma(3 1)=  0.00000000E+00
- sigma(3 3)=  8.47923288E+00  sigma(2 1)=  0.00000000E+00

================================================================================
== DATASET  2 ==================================================================
-   mpi_nproc: 1, omp_nthreads: -1 (-1 if OMP is not activated)


--- !DatasetInfo
iteration_state: {dtset: 2, }
dimensions: {natom: 2, nkpt: 128, mband: 4, nsppol: 1, nspinor: 1, nspden: 1, mpw: 77, }
cutoff_energies: {ecut:   3.0, pawecutdg:  -1.0, }
electrons: {nelect:   8.00000000E+00, charge:   0.00000000E+00, occopt:   1.00000000E+00, tsmear:   1.00000000E-02, }
meta: {optdriver: 1, rfelfd: 2, }
...

 mkfilename : getwfk/=0, take file _WFK from output of DATASET   1.

 Exchange-correlation functional for the present dataset will be:
  LDA: new Teter (4/93) with spin-polarized option - ixc=1
 Citation for XC functional:
  S. Goedecker, M. Teter, J. Huetter, PRB 54, 1703 (1996)

 Real(R)+Recip(G) space primitive vectors, cartesian coordinates (Bohr,Bohr^-1):
 R(1)=  0.0000000  5.3050000  5.3050000  G(1)= -0.0942507  0.0942507  0.0942507
 R(2)=  5.3050000  0.0000000  5.3050000  G(2)=  0.0942507 -0.0942507  0.0942507
 R(3)=  5.3050000  5.3050000  0.0000000  G(3)=  0.0942507  0.0942507 -0.0942507
 Unit cell volume ucvol=  2.9859750E+02 bohr^3
 Angles (23,13,12)=  6.00000000E+01  6.00000000E+01  6.00000000E+01 degrees
 setup1 : take into account q-point for computing boxcut.

 getcut: wavevector=  0.0000  0.0000  0.0000  ngfft=  12  12  12
         ecut(hartree)=      3.000   => boxcut(ratio)=   2.05142
--------------------------------------------------------------------------------


 ==>  initialize data related to q vector <== 

 The list of irreducible perturbations for this q vector is:
    1)    idir= 1    ipert=   3
    2)    idir= 2    ipert=   3
    3)    idir= 3    ipert=   3

================================================================================

--------------------------------------------------------------------------------
 Perturbation wavevector (in red.coord.)   0.000000  0.000000  0.000000
 Perturbation : derivative vs k along direction   1
 The set of symmetries contains only one element for this perturbation.
 symkpt : not enough symmetry to change the number of k points.

--------------------------------------------------------------------------------

--------------------------------------------------------------------------------

 Initialisation of the first-order wave-functions :
  ireadwf=   0

--- !BeginCycle
iteration_state: {dtset: 2, }
solver: {iscf: -3, nstep: 25, nline: 4, wfoptalg: 0, }
tolerances: {tolwfr: 1.00E-22, }
...

     iter   2DEtotal(Ha)        deltaE(Ha) residm    vres2
-ETOT  1  -8.3114098351002     -8.311E+00 2.709E-02 0.000E+00
 ETOT  2  -8.3153468863157     -3.937E-03 1.678E-05 0.000E+00
 ETOT  3  -8.3153482599006     -1.374E-06 4.304E-09 0.000E+00
 ETOT  4  -8.3153482607225     -8.218E-10 6.757E-12 0.000E+00
 ETOT  5  -8.3153482607232     -7.248E-13 9.995E-15 0.000E+00
 ETOT  6  -8.3153482607232     -3.020E-14 1.690E-17 0.000E+00
 ETOT  7  -8.3153482607232     -5.329E-15 2.558E-20 0.000E+00
 ETOT  8  -8.3153482607232     -1.776E-15 9.944E-23 0.000E+00

 At SCF step    8   max residual=  9.94E-23 < tolwfr=  1.00E-22 =>converged.
================================================================================

 ----iterations are completed or convergence reached----

 Mean square residual over all n,k,spin=   35.796E-24; max=  99.441E-24
 dfpt_looppert : ek2=    1.6833336546E+01
          f-sum rule ratio=    1.0028582974E+00
 prteigrs : about to open file AlAst_1WF1_EIG
 Expectation of eigenvalue derivatives (hartree) for nkpt= 128  k points:
  (in case of degenerate eigenvalues, averaged derivative)
 kpt#   1, nband=  4, wtk=  0.00781, kpt= -0.1250 -0.2500  0.0000 (reduced coord)
  -0.03198   -0.09242    0.14993    0.22645
 prteigrs : prtvol=0 or 1, do not print more k-points.


 Eight components of 2nd-order total energy (hartree) are
 1,2,3: 0th-order hamiltonian combined with 1st-order wavefunctions
     kin0=   2.21582275E+01 eigvalue=  -1.19796310E+00  local=  -1.73372853E+01
 4,5,6: 1st-order hamiltonian combined with 1st and 0th-order wfs
     kin1=  -1.68814512E+01  Hartree=   0.00000000E+00     xc=   0.00000000E+00
 7,8,9: eventually, occupation + non-local contributions
    edocc=   0.00000000E+00     enl0=   4.69236920E+00   enl1=   2.50754707E-01
 1-9 gives the relaxation energy (to be shifted if some occ is /=2.0)
   erelax=  -8.31534826E+00
  No Ewald or frozen-wf contrib.: the relaxation energy is the total one
 2DEtotal=   -0.8315348261E+01 Ha. Also 2DEtotal=   -0.226272133452E+03 eV
    (  non-var. 2DEtotal :   -8.3153482607E+00 Ha)

--------------------------------------------------------------------------------
 Perturbation wavevector (in red.coord.)   0.000000  0.000000  0.000000
 Perturbation : derivative vs k along direction   2
 The set of symmetries contains only one element for this perturbation.
 symkpt : not enough symmetry to change the number of k points.

--------------------------------------------------------------------------------

--------------------------------------------------------------------------------

 Initialisation of the first-order wave-functions :
  ireadwf=   0

--- !BeginCycle
iteration_state: {dtset: 2, }
solver: {iscf: -3, nstep: 25, nline: 4, wfoptalg: 0, }
tolerances: {tolwfr: 1.00E-22, }
...

     iter   2DEtotal(Ha)        deltaE(Ha) residm    vres2
-ETOT  1  -8.3114098349986     -8.311E+00 2.709E-02 0.000E+00
 ETOT  2  -8.3153468862142     -3.937E-03 1.678E-05 0.000E+00
 ETOT  3  -8.3153482597991     -1.374E-06 4.304E-09 0.000E+00
 ETOT  4  -8.3153482606209     -8.218E-10 6.757E-12 0.000E+00
 ETOT  5  -8.3153482606216     -7.692E-13 9.995E-15 0.000E+00
 ETOT  6  -8.3153482606217     -1.954E-14 1.690E-17 0.000E+00
 ETOT  7  -8.3153482606217     -1.243E-14 2.558E-20 0.000E+00
 ETOT  8  -8.3153482606217      1.599E-14 9.944E-23 0.000E+00

 At SCF step    8   max residual=  9.94E-23 < tolwfr=  1.00E-22 =>converged.
================================================================================

 ----iterations are completed or convergence reached----

 Mean square residual over all n,k,spin=   35.796E-24; max=  99.440E-24
 dfpt_looppert : ek2=    1.6833336546E+01
          f-sum rule ratio=    1.0028582974E+00
 prteigrs : about to open file AlAst_1WF1_EIG
 Expectation of eigenvalue derivatives (hartree) for nkpt= 128  k points:
  (in case of degenerate eigenvalues, averaged derivative)
 kpt#   1, nband=  4, wtk=  0.00781, kpt= -0.1250 -0.2500  0.0000 (reduced coord)
  -0.13929    0.51605    0.09880    0.12763
 prteigrs : prtvol=0 or 1, do not print more k-points.


 Eight components of 2nd-order total energy (hartree) are
 1,2,3: 0th-order hamiltonian combined with 1st-order wavefunctions
     kin0=   2.21582275E+01 eigvalue=  -1.19796310E+00  local=  -1.73372853E+01
 4,5,6: 1st-order hamiltonian combined with 1st and 0th-order wfs
     kin1=  -1.68814512E+01  Hartree=   0.00000000E+00     xc=   0.00000000E+00
 7,8,9: eventually, occupation + non-local contributions
    edocc=   0.00000000E+00     enl0=   4.69236920E+00   enl1=   2.50754707E-01
 1-9 gives the relaxation energy (to be shifted if some occ is /=2.0)
   erelax=  -8.31534826E+00
  No Ewald or frozen-wf contrib.: the relaxation energy is the total one
 2DEtotal=   -0.8315348261E+01 Ha. Also 2DEtotal=   -0.226272133449E+03 eV
    (  non-var. 2DEtotal :   -8.3153482606E+00 Ha)

--------------------------------------------------------------------------------
 Perturbation wavevector (in red.coord.)   0.000000  0.000000  0.000000
 Perturbation : derivative vs k along direction   3
 The set of symmetries contains only one element for this perturbation.
 symkpt : not enough symmetry to change the number of k points.

--------------------------------------------------------------------------------

--------------------------------------------------------------------------------

 Initialisation of the first-order wave-functions :
  ireadwf=   0

--- !BeginCycle
iteration_state: {dtset: 2, }
solver: {iscf: -3, nstep: 25, nline: 4, wfoptalg: 0, }
tolerances: {tolwfr: 1.00E-22, }
...

     iter   2DEtotal(Ha)        deltaE(Ha) residm    vres2
-ETOT  1  -8.3114098348971     -8.311E+00 2.709E-02 0.000E+00
 ETOT  2  -8.3153468861126     -3.937E-03 1.678E-05 0.000E+00
 ETOT  3  -8.3153482596975     -1.374E-06 4.304E-09 0.000E+00
 ETOT  4  -8.3153482605193     -8.218E-10 6.757E-12 0.000E+00
 ETOT  5  -8.3153482605201     -7.816E-13 9.995E-15 0.000E+00
 ETOT  6  -8.3153482605200      3.020E-14 1.690E-17 0.000E+00
 ETOT  7  -8.3153482605200     -3.553E-15 2.558E-20 0.000E+00
 ETOT  8  -8.3153482605200      0.000E+00 9.944E-23 0.000E+00

 At SCF step    8   max residual=  9.94E-23 < tolwfr=  1.00E-22 =>converged.
================================================================================

 ----iterations are completed or convergence reached----

 Mean square residual over all n,k,spin=   35.796E-24; max=  99.439E-24
 dfpt_looppert : ek2=    1.6833336546E+01
          f-sum rule ratio=    1.0028582974E+00
 prteigrs : about to open file AlAst_1WF1_EIG
 Expectation of eigenvalue derivatives (hartree) for nkpt= 128  k points:
  (in case of degenerate eigenvalues, averaged derivative)
 kpt#   1, nband=  4, wtk=  0.00781, kpt= -0.1250 -0.2500  0.0000 (reduced coord)
   0.08564   -0.21181   -0.12436   -0.17704
 prteigrs : prtvol=0 or 1, do not print more k-points.


 Eight components of 2nd-order total energy (hartree) are
 1,2,3: 0th-order hamiltonian combined with 1st-order wavefunctions
     kin0=   2.21582275E+01 eigvalue=  -1.19796310E+00  local=  -1.73372853E+01
 4,5,6: 1st-order hamiltonian combined with 1st and 0th-order wfs
     kin1=  -1.68814512E+01  Hartree=   0.00000000E+00     xc=   0.00000000E+00
 7,8,9: eventually, occupation + non-local contributions
    edocc=   0.00000000E+00     enl0=   4.69236920E+00   enl1=   2.50754707E-01
 1-9 gives the relaxation energy (to be shifted if some occ is /=2.0)
   erelax=  -8.31534826E+00
  No Ewald or frozen-wf contrib.: the relaxation energy is the total one
 2DEtotal=   -0.8315348261E+01 Ha. Also 2DEtotal=   -0.226272133447E+03 eV
    (  non-var. 2DEtotal :   -8.3153482605E+00 Ha)
================================================================================

 ---- first-order wavefunction calculations are completed ----


 Total localisation tensor (bohr^2) in cartesian coordinates
  WARNING : still subject to testing - especially symmetries.
      direction              matrix element
   alpha     beta       real part   imaginary part
     1        1       3.6790141913    0.0000000000
     1        2       1.8395070956    0.0000000000
     1        3       1.8395070956    0.0000000000
     2        1       1.8395070956    0.0000000000
     2        2       3.6790141913    0.0000000000
     2        3       1.8395070956    0.0000000000
     3        1       1.8395070956    0.0000000000
     3        2       1.8395070956    0.0000000000
     3        3       3.6790141913    0.0000000000

 respfn : d/dk was computed, but no 2DTE, so no DDB output.

================================================================================
== DATASET  3 ==================================================================
-   mpi_nproc: 1, omp_nthreads: -1 (-1 if OMP is not activated)


--- !DatasetInfo
iteration_state: {dtset: 3, }
dimensions: {natom: 2, nkpt: 128, mband: 4, nsppol: 1, nspinor: 1, nspden: 1, mpw: 77, }
cutoff_energies: {ecut:   3.0, pawecutdg:  -1.0, }
electrons: {nelect:   8.00000000E+00, charge:   0.00000000E+00, occopt:   1.00000000E+00, tsmear:   1.00000000E-02, }
meta: {optdriver: 1, rfelfd: 3, rfphon: 1, }
...

 mkfilename : getwfk/=0, take file _WFK from output of DATASET   1.

 mkfilename : getddk/=0, take file _1WF from output of DATASET   2.

 Exchange-correlation functional for the present dataset will be:
  LDA: new Teter (4/93) with spin-polarized option - ixc=1
 Citation for XC functional:
  S. Goedecker, M. Teter, J. Huetter, PRB 54, 1703 (1996)

 Real(R)+Recip(G) space primitive vectors, cartesian coordinates (Bohr,Bohr^-1):
 R(1)=  0.0000000  5.3050000  5.3050000  G(1)= -0.0942507  0.0942507  0.0942507
 R(2)=  5.3050000  0.0000000  5.3050000  G(2)=  0.0942507 -0.0942507  0.0942507
 R(3)=  5.3050000  5.3050000  0.0000000  G(3)=  0.0942507  0.0942507 -0.0942507
 Unit cell volume ucvol=  2.9859750E+02 bohr^3
 Angles (23,13,12)=  6.00000000E+01  6.00000000E+01  6.00000000E+01 degrees
 setup1 : take into account q-point for computing boxcut.

 getcut: wavevector=  0.0000  0.0000  0.0000  ngfft=  12  12  12
         ecut(hartree)=      3.000   => boxcut(ratio)=   2.05142
--------------------------------------------------------------------------------


 ==>  initialize data related to q vector <== 

 The list of irreducible perturbations for this q vector is:
    1)    idir= 1    ipert=   1
    2)    idir= 1    ipert=   2
    3)    idir= 1    ipert=   4

================================================================================

 The perturbation idir=   2  ipert=   1 is
 symmetric of a previously calculated perturbation.
 So, its SCF calculation is not needed.


 The perturbation idir=   3  ipert=   1 is
 symmetric of a previously calculated perturbation.
 So, its SCF calculation is not needed.


 The perturbation idir=   2  ipert=   2 is
 symmetric of a previously calculated perturbation.
 So, its SCF calculation is not needed.


 The perturbation idir=   3  ipert=   2 is
 symmetric of a previously calculated perturbation.
 So, its SCF calculation is not needed.


 The perturbation idir=   2  ipert=   4 is
 symmetric of a previously calculated perturbation.
 So, its SCF calculation is not needed.


 The perturbation idir=   3  ipert=   4 is
 symmetric of a previously calculated perturbation.
 So, its SCF calculation is not needed.


--------------------------------------------------------------------------------
 Perturbation wavevector (in red.coord.)   0.000000  0.000000  0.000000
 Perturbation : displacement of atom   1   along direction   1
 Found     2 symmetries that leave the perturbation invariant.
 symkpt : the number of k-points, thanks to the symmetries,
 is reduced to    72 .

--------------------------------------------------------------------------------

--------------------------------------------------------------------------------

 Initialisation of the first-order wave-functions :
  ireadwf=   0

--- !BeginCycle
iteration_state: {dtset: 3, }
solver: {iscf: 5, nstep: 25, nline: 4, wfoptalg: 0, }
tolerances: {tolvrs: 1.00E-08, }
...

     iter   2DEtotal(Ha)        deltaE(Ha) residm    vres2
-ETOT  1   6.5155752624983     -1.464E+01 1.146E-02 1.948E+02
 ETOT  2   5.0216683075150     -1.494E+00 9.267E-04 2.028E+00
 ETOT  3   5.0082686053627     -1.340E-02 4.777E-06 7.932E-02
 ETOT  4   5.0078679276038     -4.007E-04 1.980E-07 2.728E-03
 ETOT  5   5.0078559294655     -1.200E-05 6.132E-09 5.113E-05
 ETOT  6   5.0078557948804     -1.346E-07 1.250E-10 9.817E-06
 ETOT  7   5.0078557438933     -5.099E-08 2.797E-11 3.966E-07
 ETOT  8   5.0078557422513     -1.642E-09 3.078E-12 6.144E-09

 At SCF step    8       vres2   =  6.14E-09 < tolvrs=  1.00E-08 =>converged.
-open ddk wf file :AlAso_DS2_1WF7
-open ddk wf file :AlAso_DS2_1WF8
-open ddk wf file :AlAso_DS2_1WF9
================================================================================

 ----iterations are completed or convergence reached----

 Mean square residual over all n,k,spin=   33.110E-14; max=  30.778E-13

 Thirteen components of 2nd-order total energy (hartree) are
 1,2,3: 0th-order hamiltonian combined with 1st-order wavefunctions
     kin0=   1.89159516E+01 eigvalue=   6.44876681E-01  local=  -1.10545761E+01
 4,5,6: 1st-order hamiltonian combined with 1st and 0th-order wfs
 loc psp =  -1.49261249E+01  Hartree=   3.64458909E+00     xc=  -1.67029725E+00
 note that "loc psp" includes a xc core correction that could be resolved
 7,8,9: eventually, occupation + non-local contributions
    edocc=   0.00000000E+00     enl0=   5.66829618E+00   enl1=  -1.73715623E+01
 1-9 gives the relaxation energy (to be shifted if some occ is /=2.0)
   erelax=  -1.61488470E+01
 10,11,12 Non-relaxation  contributions : frozen-wavefunctions and Ewald
 fr.local=  -6.53124858E+00 fr.nonlo=   1.58440582E+01  Ewald=   1.18438931E+01
 13,14 Frozen wf xc core corrections (1) and (2)
 frxc 1  =   0.00000000E+00  frxc 2 =   0.00000000E+00
 Resulting in :
 2DEtotal=    0.5007855742E+01 Ha. Also 2DEtotal=    0.136270684918E+03 eV
    (2DErelax=   -1.6148847045E+01 Ha. 2DEnonrelax=    2.1156702787E+01 Ha)
    (  non-var. 2DEtotal :    5.0078591836E+00 Ha)


--------------------------------------------------------------------------------
 Perturbation wavevector (in red.coord.)   0.000000  0.000000  0.000000
 Perturbation : displacement of atom   2   along direction   1
 Found     2 symmetries that leave the perturbation invariant.
 symkpt : the number of k-points, thanks to the symmetries,
 is reduced to    72 .

--------------------------------------------------------------------------------

--------------------------------------------------------------------------------

 Initialisation of the first-order wave-functions :
  ireadwf=   0

--- !BeginCycle
iteration_state: {dtset: 3, }
solver: {iscf: 5, nstep: 25, nline: 4, wfoptalg: 0, }
tolerances: {tolvrs: 1.00E-08, }
...

     iter   2DEtotal(Ha)        deltaE(Ha) residm    vres2
-ETOT  1   36.758536542696     -4.706E+01 1.176E-01 3.448E+03
 ETOT  2   5.9748005656758     -3.078E+01 2.468E-02 8.932E+01
 ETOT  3   5.1175126693809     -8.573E-01 4.202E-04 1.255E+01
 ETOT  4   5.0116090812843     -1.059E-01 1.163E-04 6.989E-01
 ETOT  5   5.0078243028630     -3.785E-03 2.967E-06 1.058E-02
 ETOT  6   5.0077846769065     -3.963E-05 5.239E-08 1.424E-04
 ETOT  7   5.0077840670776     -6.098E-07 7.571E-10 1.241E-05
 ETOT  8   5.0077840605777     -6.500E-09 3.480E-12 9.528E-06
 ETOT  9   5.0077840167622     -4.382E-08 2.184E-11 4.876E-07
 ETOT 10   5.0077840144155     -2.347E-09 4.314E-12 9.065E-10

 At SCF step   10       vres2   =  9.07E-10 < tolvrs=  1.00E-08 =>converged.
-open ddk wf file :AlAso_DS2_1WF7
-open ddk wf file :AlAso_DS2_1WF8
-open ddk wf file :AlAso_DS2_1WF9
================================================================================

 ----iterations are completed or convergence reached----

 Mean square residual over all n,k,spin=   52.715E-14; max=  43.136E-13

 Thirteen components of 2nd-order total energy (hartree) are
 1,2,3: 0th-order hamiltonian combined with 1st-order wavefunctions
     kin0=   9.53510105E+01 eigvalue=   1.48261774E-01  local=  -5.05077768E+01
 4,5,6: 1st-order hamiltonian combined with 1st and 0th-order wfs
 loc psp =  -1.32008025E+02  Hartree=   3.55059161E+01     xc=  -1.09787526E+01
 note that "loc psp" includes a xc core correction that could be resolved
 7,8,9: eventually, occupation + non-local contributions
    edocc=   0.00000000E+00     enl0=   9.29345881E+00   enl1=  -2.56162003E+01
 1-9 gives the relaxation energy (to be shifted if some occ is /=2.0)
   erelax=  -7.88121072E+01
 10,11,12 Non-relaxation  contributions : frozen-wavefunctions and Ewald
 fr.local=   5.64891219E+01 fr.nonlo=   1.26903395E+01  Ewald=   1.18438931E+01
 13,14 Frozen wf xc core corrections (1) and (2)
 frxc 1  =  -1.87423936E+01  frxc 2 =   2.15389302E+01
 Resulting in :
 2DEtotal=    0.5007784014E+01 Ha. Also 2DEtotal=    0.136268733104E+03 eV
    (2DErelax=   -7.8812107233E+01 Ha. 2DEnonrelax=    8.3819891248E+01 Ha)
    (  non-var. 2DEtotal :    5.0077787281E+00 Ha)


--------------------------------------------------------------------------------
 Perturbation wavevector (in red.coord.)   0.000000  0.000000  0.000000
 Perturbation : homogeneous electric field along direction   1
 The set of symmetries contains only one element for this perturbation.
 symkpt : not enough symmetry to change the number of k points.

--------------------------------------------------------------------------------

--------------------------------------------------------------------------------

 Initialisation of the first-order wave-functions :
  ireadwf=   0
- dfpt_looppert: read the DDK wavefunctions from file: AlAso_DS2_1WF7

--- !BeginCycle
iteration_state: {dtset: 3, }
solver: {iscf: 5, nstep: 25, nline: 4, wfoptalg: 0, }
tolerances: {tolvrs: 1.00E-08, }
...

     iter   2DEtotal(Ha)        deltaE(Ha) residm    vres2
-ETOT  1  -206.10891163394     -2.061E+02 1.120E+00 1.364E+03
 ETOT  2  -218.54036293556     -1.243E+01 1.072E-02 4.389E+01
 ETOT  3  -218.93037615374     -3.900E-01 2.074E-04 7.848E+00
 ETOT  4  -219.00624455232     -7.587E-02 9.617E-05 3.350E-01
 ETOT  5  -219.00830193607     -2.057E-03 1.002E-06 5.914E-03
 ETOT  6  -219.00832761473     -2.568E-05 2.488E-08 2.226E-04
 ETOT  7  -219.00832897774     -1.363E-06 1.262E-09 2.420E-05
 ETOT  8  -219.00832909399     -1.162E-07 5.088E-11 1.453E-05
 ETOT  9  -219.00832914902     -5.503E-08 3.960E-11 1.351E-06
 ETOT 10  -219.00832915460     -5.578E-09 5.234E-12 6.910E-09

 At SCF step   10       vres2   =  6.91E-09 < tolvrs=  1.00E-08 =>converged.
-open ddk wf file :AlAso_DS2_1WF7
-open ddk wf file :AlAso_DS2_1WF8
-open ddk wf file :AlAso_DS2_1WF9
================================================================================

 ----iterations are completed or convergence reached----

 Mean square residual over all n,k,spin=   11.969E-13; max=  52.343E-13

 Seven components of 2nd-order total energy (hartree) are
 1,2,3: 0th-order hamiltonian combined with 1st-order wavefunctions
     kin0=   6.65826746E+02 eigvalue=  -5.69253887E+01  local=  -5.93397459E+02
 4,5,6: 1st-order hamiltonian combined with 1st and 0th-order wfs
    dotwf=  -4.38016634E+02  Hartree=   3.03257950E+01     xc=  -1.71501521E+01
 7,8,9: eventually, occupation + non-local contributions
    edocc=   0.00000000E+00     enl0=   1.90328765E+02   enl1=   0.00000000E+00
 1-9 gives the relaxation energy (to be shifted if some occ is /=2.0)
   erelax=  -2.19008329E+02
  No Ewald or frozen-wf contrib.: the relaxation energy is the total one
 2DEtotal=   -0.2190083292E+03 Ha. Also 2DEtotal=   -0.595951971316E+04 eV
    (  non-var. 2DEtotal :   -2.1900831719E+02 Ha)
================================================================================

 ---- first-order wavefunction calculations are completed ----


 ==> Compute Derivative Database <==
 The violation of the charge neutrality conditions
 by the effective charges is as follows :
    atom        electric field
 displacement     direction
       1               1       -0.022868        0.000000
       1               2       -0.000000        0.000000
       1               3        0.000000        0.000000
       2               1       -0.000000        0.000000
       2               2       -0.022868        0.000000
       2               3       -0.000000        0.000000
       3               1        0.000000        0.000000
       3               2        0.000000        0.000000
       3               3       -0.022868        0.000000

 Effective charge tensors after 
 imposition of the charge neutrality (if requested by user),
 and eventual restriction to some part :
   atom    displacement
         1         1    2.115790E+00    2.225353E-17   -5.589914E-16
         1         2    6.606318E-16    2.115790E+00    5.684618E-16
         1         3   -6.606318E-16   -2.225353E-17    2.115790E+00
         2         1   -2.115790E+00   -2.225353E-17    5.589914E-16
         2         2   -6.606318E-16   -2.115790E+00   -5.684618E-16
         2         3    6.606318E-16    2.225353E-17   -2.115790E+00
 Now, the imaginary part of the dynamical matrix is zeroed
  
  2nd-order matrix (non-cartesian coordinates, masses not included,
   asr not included )
     j1       j2             matrix element
  dir pert dir pert     real part     imaginary part
  
   1    1   1    1         5.0078591780         0.0000000000
   1    1   2    1         2.5039295890         0.0000000000
   1    1   3    1         2.5039295890         0.0000000000
   1    1   1    2        -5.0077955321        -0.0000000000
   1    1   2    2        -2.5038977660         0.0000000000
   1    1   3    2        -2.5038977660         0.0000000000
   1    1   1    4        -5.6274965189         0.0000000000
   1    1   2    4         0.0000000000         0.0000000000
   1    1   3    4         0.0000000000         0.0000000000
  
   2    1   1    1         2.5039295890         0.0000000000
   2    1   2    1         5.0078591780         0.0000000000
   2    1   3    1         2.5039295890         0.0000000000
   2    1   1    2        -2.5038977660         0.0000000000
   2    1   2    2        -5.0077955321        -0.0000000000
   2    1   3    2        -2.5038977660         0.0000000000
   2    1   1    4         0.0000000000         0.0000000000
   2    1   2    4        -5.6274965189         0.0000000000
   2    1   3    4         0.0000000000         0.0000000000
  
   3    1   1    1         2.5039295890         0.0000000000
   3    1   2    1         2.5039295890         0.0000000000
   3    1   3    1         5.0078591780         0.0000000000
   3    1   1    2        -2.5038977660         0.0000000000
   3    1   2    2        -2.5038977660         0.0000000000
   3    1   3    2        -5.0077955321         0.0000000000
   3    1   1    4        -0.0000000000         0.0000000000
   3    1   2    4        -0.0000000000         0.0000000000
   3    1   3    4        -5.6274965189         0.0000000000
  
   1    2   1    1        -5.0077717293         0.0000000000
   1    2   2    1        -2.5038858646        -0.0000000000
   1    2   3    1        -2.5038858646        -0.0000000000
   1    2   1    2         5.0077787498         0.0000000000
   1    2   2    2         2.5038893749         0.0000000000
   1    2   3    2         2.5038893749         0.0000000000
   1    2   1    4       -44.7816685604         0.0000000000
   1    2   2    4        -0.0000000000         0.0000000000
   1    2   3    4         0.0000000000         0.0000000000
  
   2    2   1    1        -2.5038858646        -0.0000000000
   2    2   2    1        -5.0077717293         0.0000000000
   2    2   3    1        -2.5038858646        -0.0000000000
   2    2   1    2         2.5038893749         0.0000000000
   2    2   2    2         5.0077787498         0.0000000000
   2    2   3    2         2.5038893749         0.0000000000
   2    2   1    4         0.0000000000         0.0000000000
   2    2   2    4       -44.7816685604         0.0000000000
   2    2   3    4         0.0000000000         0.0000000000
  
   3    2   1    1        -2.5038858646        -0.0000000000
   3    2   2    1        -2.5038858646        -0.0000000000
   3    2   3    1        -5.0077717293        -0.0000000000
   3    2   1    2         2.5038893749         0.0000000000
   3    2   2    2         2.5038893749         0.0000000000
   3    2   3    2         5.0077787498         0.0000000000
   3    2   1    4         0.0000000000         0.0000000000
   3    2   2    4        -0.0000000000         0.0000000000
   3    2   3    4       -44.7816685604         0.0000000000
  
   1    4   1    1        -5.6274744749         0.0000000000
   1    4   2    1         0.0000000000         0.0000000000
   1    4   3    1         0.0000000000         0.0000000000
   1    4   1    2       -44.7817004049         0.0000000000
   1    4   2    2         0.0000000000         0.0000000000
   1    4   3    2         0.0000000000         0.0000000000
   1    4   1    4      -219.0083171916         0.0000000000
   1    4   2    4        73.0027723972         0.0000000000
   1    4   3    4        73.0027723972         0.0000000000
  
   2    4   1    1         0.0000000000         0.0000000000
   2    4   2    1        -5.6274744749         0.0000000000
   2    4   3    1        -0.0000000000         0.0000000000
   2    4   1    2        -0.0000000000         0.0000000000
   2    4   2    2       -44.7817004049         0.0000000000
   2    4   3    2         0.0000000000         0.0000000000
   2    4   1    4        73.0027723972         0.0000000000
   2    4   2    4      -219.0083171916         0.0000000000
   2    4   3    4        73.0027723972         0.0000000000
  
   3    4   1    1        -0.0000000000         0.0000000000
   3    4   2    1         0.0000000000         0.0000000000
   3    4   3    1        -5.6274744749         0.0000000000
   3    4   1    2         0.0000000000         0.0000000000
   3    4   2    2        -0.0000000000         0.0000000000
   3    4   3    2       -44.7817004049         0.0000000000
   3    4   1    4        73.0027723972         0.0000000000
   3    4   2    4        73.0027723972         0.0000000000
   3    4   3    4      -219.0083171916         0.0000000000
  
  
  Dynamical matrix, in cartesian coordinates,
   if specified in the inputs, asr has been imposed
     j1       j2             matrix element
  dir pert dir pert     real part    imaginary part
  
   1    1   1    1         0.0889704559         0.0000000000
   1    1   2    1        -0.0000000000         0.0000000000
   1    1   3    1        -0.0000000000         0.0000000000
   1    1   1    2        -0.0889704559         0.0000000000
   1    1   2    2         0.0000000000         0.0000000000
   1    1   3    2         0.0000000000         0.0000000000
  
   2    1   1    1        -0.0000000000         0.0000000000
   2    1   2    1         0.0889704559         0.0000000000
   2    1   3    1        -0.0000000000         0.0000000000
   2    1   1    2         0.0000000000         0.0000000000
   2    1   2    2        -0.0889704559         0.0000000000
   2    1   3    2         0.0000000000         0.0000000000
  
   3    1   1    1        -0.0000000000         0.0000000000
   3    1   2    1        -0.0000000000         0.0000000000
   3    1   3    1         0.0889704559         0.0000000000
   3    1   1    2         0.0000000000         0.0000000000
   3    1   2    2         0.0000000000         0.0000000000
   3    1   3    2        -0.0889704559         0.0000000000
  
   1    2   1    1        -0.0889700331         0.0000000000
   1    2   2    1         0.0000000000         0.0000000000
   1    2   3    1         0.0000000000         0.0000000000
   1    2   1    2         0.0889700331         0.0000000000
   1    2   2    2        -0.0000000000         0.0000000000
   1    2   3    2        -0.0000000000         0.0000000000
  
   2    2   1    1         0.0000000000         0.0000000000
   2    2   2    1        -0.0889700331         0.0000000000
   2    2   3    1         0.0000000000         0.0000000000
   2    2   1    2        -0.0000000000         0.0000000000
   2    2   2    2         0.0889700331         0.0000000000
   2    2   3    2        -0.0000000000         0.0000000000
  
   3    2   1    1         0.0000000000         0.0000000000
   3    2   2    1         0.0000000000         0.0000000000
   3    2   3    1        -0.0889700331         0.0000000000
   3    2   1    2        -0.0000000000         0.0000000000
   3    2   2    2        -0.0000000000         0.0000000000
   3    2   3    2         0.0889700331         0.0000000000
  
  Dielectric tensor, in cartesian coordinates,
     j1       j2             matrix element
  dir pert dir pert     real part    imaginary part
  
   1    4   1    4         9.7606047777        -0.0000000000
   1    4   2    4        -0.0000000000        -0.0000000000
   1    4   3    4        -0.0000000000        -0.0000000000
  
   2    4   1    4        -0.0000000000        -0.0000000000
   2    4   2    4         9.7606047777        -0.0000000000
   2    4   3    4        -0.0000000000        -0.0000000000
  
   3    4   1    4        -0.0000000000        -0.0000000000
   3    4   2    4        -0.0000000000        -0.0000000000
   3    4   3    4         9.7606047777        -0.0000000000
  
  Effective charges, in cartesian coordinates,
  (from electric field response) 
   if specified in the inputs, charge neutrality has been imposed
     j1       j2             matrix element
  dir pert dir pert     real part    imaginary part
  
   1    1   1    4         2.1157900115         0.0000000000
   2    1   1    4         0.0000000000         0.0000000000
   3    1   1    4        -0.0000000000         0.0000000000
   1    2   1    4        -2.1157900115         0.0000000000
   2    2   1    4        -0.0000000000         0.0000000000
   3    2   1    4         0.0000000000         0.0000000000
  
   1    1   2    4         0.0000000000         0.0000000000
   2    1   2    4         2.1157900115         0.0000000000
   3    1   2    4        -0.0000000000         0.0000000000
   1    2   2    4        -0.0000000000         0.0000000000
   2    2   2    4        -2.1157900115         0.0000000000
   3    2   2    4         0.0000000000         0.0000000000
  
   1    1   3    4        -0.0000000000         0.0000000000
   2    1   3    4         0.0000000000         0.0000000000
   3    1   3    4         2.1157900115         0.0000000000
   1    2   3    4         0.0000000000         0.0000000000
   2    2   3    4        -0.0000000000         0.0000000000
   3    2   3    4        -2.1157900115         0.0000000000
  
  Effective charges, in cartesian coordinates,
  (from phonon response) 
   if specified in the inputs, charge neutrality has been imposed
     j1       j2             matrix element
  dir pert dir pert     real part    imaginary part
  
   1    4   1    1         2.1157942999         0.0000000000
   2    4   1    1        -0.0000000000         0.0000000000
   3    4   1    1        -0.0000000000         0.0000000000
  
   1    4   2    1         0.0000000000         0.0000000000
   2    4   2    1         2.1157942999         0.0000000000
   3    4   2    1         0.0000000000         0.0000000000
  
   1    4   3    1        -0.0000000000         0.0000000000
   2    4   3    1         0.0000000000         0.0000000000
   3    4   3    1         2.1157942999         0.0000000000
  
   1    4   1    2        -2.1157942999         0.0000000000
   2    4   1    2         0.0000000000         0.0000000000
   3    4   1    2         0.0000000000         0.0000000000
  
   1    4   2    2        -0.0000000000         0.0000000000
   2    4   2    2        -2.1157942999         0.0000000000
   3    4   2    2        -0.0000000000         0.0000000000
  
   1    4   3    2         0.0000000000         0.0000000000
   2    4   3    2        -0.0000000000         0.0000000000
   3    4   3    2        -2.1157942999         0.0000000000
  
  
  

  Phonon wavevector (reduced coordinates) :  0.00000  0.00000  0.00000
 Phonon energies in Hartree :
   0.000000E+00  0.000000E+00  0.000000E+00  1.568554E-03  1.568554E-03
   1.568554E-03
 Phonon frequencies in cm-1    :
-  0.000000E+00  0.000000E+00  0.000000E+00  3.442578E+02  3.442578E+02
-  3.442578E+02

  Phonon at Gamma, with non-analyticity in the
  direction (cartesian coordinates)  1.00000  0.00000  0.00000
 Phonon energies in Hartree :
   0.000000E+00  0.000000E+00  0.000000E+00  1.568554E-03  1.568554E-03
   1.730353E-03
 Phonon frequencies in cm-1    :
-  0.000000E+00  0.000000E+00  0.000000E+00  3.442578E+02  3.442578E+02
-  3.797686E+02

  Phonon at Gamma, with non-analyticity in the
  direction (cartesian coordinates)  0.00000  1.00000  0.00000
 Phonon energies in Hartree :
   0.000000E+00  0.000000E+00  0.000000E+00  1.568554E-03  1.568554E-03
   1.730353E-03
 Phonon frequencies in cm-1    :
-  0.000000E+00  0.000000E+00  0.000000E+00  3.442578E+02  3.442578E+02
-  3.797686E+02

  Phonon at Gamma, with non-analyticity in the
  direction (cartesian coordinates)  0.00000  0.00000  1.00000
 Phonon energies in Hartree :
   0.000000E+00  0.000000E+00  0.000000E+00  1.568554E-03  1.568554E-03
   1.730353E-03
 Phonon frequencies in cm-1    :
-  0.000000E+00  0.000000E+00  0.000000E+00  3.442578E+02  3.442578E+02
-  3.797686E+02

== END DATASET(S) ==============================================================
================================================================================
  
 -outvars: echo values of variables after computation  --------
            acell      1.0610000000E+01  1.0610000000E+01  1.0610000000E+01 Bohr
              amu      2.69815390E+01  7.49215900E+01
           diemac      9.00000000E+00
             ecut      3.00000000E+00 Hartree
           etotal1    -9.7626837450E+00
           etotal2    -8.3153482605E+00
           etotal3    -2.1900832915E+02
            fcart1     6.1958914956E-32 -6.1958914956E-32  6.1958914956E-32
                      -6.1958914956E-32  6.1958914956E-32 -6.1958914956E-32
            fcart3     0.0000000000E+00  0.0000000000E+00  0.0000000000E+00
                       0.0000000000E+00  0.0000000000E+00  0.0000000000E+00
-          fftalg         112
           getddk1          0
           getddk2          0
           getddk3          2
           getwfk1          0
           getwfk2          1
           getwfk3          1
             iscf1          5
             iscf2         -3
             iscf3          5
           jdtset        1    2    3
              kpt1    -1.25000000E-01 -2.50000000E-01  0.00000000E+00
                      -1.25000000E-01  5.00000000E-01  0.00000000E+00
                      -2.50000000E-01 -3.75000000E-01  0.00000000E+00
                      -1.25000000E-01 -3.75000000E-01  1.25000000E-01
                      -1.25000000E-01  2.50000000E-01  0.00000000E+00
                      -2.50000000E-01  3.75000000E-01  0.00000000E+00
                      -3.75000000E-01  5.00000000E-01  0.00000000E+00
                      -2.50000000E-01  5.00000000E-01  1.25000000E-01
                      -1.25000000E-01  0.00000000E+00  0.00000000E+00
                      -3.75000000E-01  0.00000000E+00  0.00000000E+00
              kpt2    -1.25000000E-01 -2.50000000E-01  0.00000000E+00
                      -2.50000000E-01 -1.25000000E-01  0.00000000E+00
                      -1.25000000E-01 -1.25000000E-01  1.25000000E-01
                      -1.25000000E-01  5.00000000E-01  0.00000000E+00
                      -2.50000000E-01 -3.75000000E-01  0.00000000E+00
                      -1.25000000E-01 -3.75000000E-01  1.25000000E-01
                      -3.75000000E-01 -2.50000000E-01  0.00000000E+00
                      -2.50000000E-01 -2.50000000E-01  1.25000000E-01
                      -1.25000000E-01 -2.50000000E-01  2.50000000E-01
                       5.00000000E-01 -1.25000000E-01  0.00000000E+00
                      -3.75000000E-01 -1.25000000E-01  1.25000000E-01
                      -2.50000000E-01 -1.25000000E-01  2.50000000E-01
                      -1.25000000E-01 -1.25000000E-01  3.75000000E-01
                      -1.25000000E-01  2.50000000E-01  0.00000000E+00
                      -2.50000000E-01  3.75000000E-01  0.00000000E+00
                      -1.25000000E-01  3.75000000E-01  1.25000000E-01
                      -3.75000000E-01  5.00000000E-01  0.00000000E+00
                      -2.50000000E-01  5.00000000E-01  1.25000000E-01
                      -1.25000000E-01  5.00000000E-01  2.50000000E-01
                       5.00000000E-01 -3.75000000E-01  0.00000000E+00
                      -3.75000000E-01 -3.75000000E-01  1.25000000E-01
                      -2.50000000E-01 -3.75000000E-01  2.50000000E-01
                      -1.25000000E-01 -3.75000000E-01  3.75000000E-01
                       3.75000000E-01 -2.50000000E-01  0.00000000E+00
                       5.00000000E-01 -2.50000000E-01  1.25000000E-01
                      -3.75000000E-01 -2.50000000E-01  2.50000000E-01
                      -2.50000000E-01 -2.50000000E-01  3.75000000E-01
                      -1.25000000E-01 -2.50000000E-01  5.00000000E-01
                       2.50000000E-01 -1.25000000E-01  0.00000000E+00
                       3.75000000E-01 -1.25000000E-01  1.25000000E-01
                       5.00000000E-01 -1.25000000E-01  2.50000000E-01
                      -3.75000000E-01 -1.25000000E-01  3.75000000E-01
                      -2.50000000E-01 -1.25000000E-01  5.00000000E-01
                      -1.25000000E-01 -1.25000000E-01 -3.75000000E-01
                      -1.25000000E-01  0.00000000E+00  0.00000000E+00
                      -1.25000000E-01  1.25000000E-01  1.25000000E-01
                      -2.50000000E-01  2.50000000E-01  1.25000000E-01
                      -1.25000000E-01  2.50000000E-01  2.50000000E-01
                      -3.75000000E-01  3.75000000E-01  1.25000000E-01
                      -2.50000000E-01  3.75000000E-01  2.50000000E-01
                      -1.25000000E-01  3.75000000E-01  3.75000000E-01
                       5.00000000E-01  5.00000000E-01  1.25000000E-01
                      -3.75000000E-01  5.00000000E-01  2.50000000E-01
                      -2.50000000E-01  5.00000000E-01  3.75000000E-01
                      -1.25000000E-01  5.00000000E-01  5.00000000E-01
                       3.75000000E-01 -3.75000000E-01  1.25000000E-01
                       5.00000000E-01 -3.75000000E-01  2.50000000E-01
                      -3.75000000E-01 -3.75000000E-01  3.75000000E-01
                      -2.50000000E-01 -3.75000000E-01  5.00000000E-01
                      -1.25000000E-01 -3.75000000E-01 -3.75000000E-01
              kpt3    -1.25000000E-01 -2.50000000E-01  0.00000000E+00
                      -2.50000000E-01 -1.25000000E-01  0.00000000E+00
                      -1.25000000E-01 -1.25000000E-01  1.25000000E-01
                      -1.25000000E-01  5.00000000E-01  0.00000000E+00
                      -2.50000000E-01 -3.75000000E-01  0.00000000E+00
                      -1.25000000E-01 -3.75000000E-01  1.25000000E-01
                      -3.75000000E-01 -2.50000000E-01  0.00000000E+00
                      -2.50000000E-01 -2.50000000E-01  1.25000000E-01
                      -1.25000000E-01 -2.50000000E-01  2.50000000E-01
                       5.00000000E-01 -1.25000000E-01  0.00000000E+00
                      -3.75000000E-01 -1.25000000E-01  1.25000000E-01
                      -2.50000000E-01 -1.25000000E-01  2.50000000E-01
                      -1.25000000E-01 -1.25000000E-01  3.75000000E-01
                      -1.25000000E-01  2.50000000E-01  0.00000000E+00
                      -2.50000000E-01  3.75000000E-01  0.00000000E+00
                      -1.25000000E-01  3.75000000E-01  1.25000000E-01
                      -3.75000000E-01  5.00000000E-01  0.00000000E+00
                      -2.50000000E-01  5.00000000E-01  1.25000000E-01
                      -1.25000000E-01  5.00000000E-01  2.50000000E-01
                       5.00000000E-01 -3.75000000E-01  0.00000000E+00
                      -3.75000000E-01 -3.75000000E-01  1.25000000E-01
                      -2.50000000E-01 -3.75000000E-01  2.50000000E-01
                      -1.25000000E-01 -3.75000000E-01  3.75000000E-01
                       3.75000000E-01 -2.50000000E-01  0.00000000E+00
                       5.00000000E-01 -2.50000000E-01  1.25000000E-01
                      -3.75000000E-01 -2.50000000E-01  2.50000000E-01
                      -2.50000000E-01 -2.50000000E-01  3.75000000E-01
                      -1.25000000E-01 -2.50000000E-01  5.00000000E-01
                       2.50000000E-01 -1.25000000E-01  0.00000000E+00
                       3.75000000E-01 -1.25000000E-01  1.25000000E-01
                       5.00000000E-01 -1.25000000E-01  2.50000000E-01
                      -3.75000000E-01 -1.25000000E-01  3.75000000E-01
                      -2.50000000E-01 -1.25000000E-01  5.00000000E-01
                      -1.25000000E-01 -1.25000000E-01 -3.75000000E-01
                      -1.25000000E-01  0.00000000E+00  0.00000000E+00
                      -1.25000000E-01  1.25000000E-01  1.25000000E-01
                      -2.50000000E-01  2.50000000E-01  1.25000000E-01
                      -1.25000000E-01  2.50000000E-01  2.50000000E-01
                      -3.75000000E-01  3.75000000E-01  1.25000000E-01
                      -2.50000000E-01  3.75000000E-01  2.50000000E-01
                      -1.25000000E-01  3.75000000E-01  3.75000000E-01
                       5.00000000E-01  5.00000000E-01  1.25000000E-01
                      -3.75000000E-01  5.00000000E-01  2.50000000E-01
                      -2.50000000E-01  5.00000000E-01  3.75000000E-01
                      -1.25000000E-01  5.00000000E-01  5.00000000E-01
                       3.75000000E-01 -3.75000000E-01  1.25000000E-01
                       5.00000000E-01 -3.75000000E-01  2.50000000E-01
                      -3.75000000E-01 -3.75000000E-01  3.75000000E-01
                      -2.50000000E-01 -3.75000000E-01  5.00000000E-01
                      -1.25000000E-01 -3.75000000E-01 -3.75000000E-01
                       outvar_i_n : Printing only first  50 k-points.
           kptopt1          1
           kptopt2          2
           kptopt3          2
         kptrlatt        4   -4    4     -4    4    4     -4   -4    4
          kptrlen      4.24400000E+01
P           mkmem1         10
P           mkmem2        128
P           mkmem3        128
P          mkqmem1         10
P          mkqmem2        128
P          mkqmem3        128
P          mk1mem1         10
P          mk1mem2        128
P          mk1mem3        128
            natom           2
            nband1          4
            nband2          4
            nband3          4
           ndtset           3
            ngfft          12      12      12
             nkpt1         10
             nkpt2        128
             nkpt3        128
             nqpt1          0
             nqpt2          1
             nqpt3          1
            nstep          25
             nsym          24
           ntypat           2
              occ1     2.000000  2.000000  2.000000  2.000000
              occ2     2.000000  2.000000  2.000000  2.000000
              occ3     2.000000  2.000000  2.000000  2.000000
        optdriver1          0
        optdriver2          1
        optdriver3          1
        optforces           1
           prtpot1          0
           prtpot2          1
           prtpot3          1
           rfelfd1          0
           rfelfd2          2
           rfelfd3          3
           rfphon1          0
           rfphon2          0
           rfphon3          1
            rprim      0.0000000000E+00  5.0000000000E-01  5.0000000000E-01
                       5.0000000000E-01  0.0000000000E+00  5.0000000000E-01
                       5.0000000000E-01  5.0000000000E-01  0.0000000000E+00
           shiftk      5.00000000E-01  5.00000000E-01  5.00000000E-01
          spgroup         216
           strten1     2.8820331612E-04  2.8820331612E-04  2.8820331612E-04
                       0.0000000000E+00  0.0000000000E+00  0.0000000000E+00
           strten3     0.0000000000E+00  0.0000000000E+00  0.0000000000E+00
                       0.0000000000E+00  0.0000000000E+00  0.0000000000E+00
           symrel      1  0  0   0  1  0   0  0  1       0 -1  1   0 -1  0   1 -1  0
                      -1  0  0  -1  0  1  -1  1  0       0  1 -1   1  0 -1   0  0 -1
                      -1  0  0  -1  1  0  -1  0  1       0 -1  1   1 -1  0   0 -1  0
                       1  0  0   0  0  1   0  1  0       0  1 -1   0  0 -1   1  0 -1
                      -1  0  1  -1  1  0  -1  0  0       0 -1  0   1 -1  0   0 -1  1
                       1  0 -1   0  0 -1   0  1 -1       0  1  0   0  0  1   1  0  0
                       1  0 -1   0  1 -1   0  0 -1       0 -1  0   0 -1  1   1 -1  0
                      -1  0  1  -1  0  0  -1  1  0       0  1  0   1  0  0   0  0  1
                       0  0 -1   0  1 -1   1  0 -1       1 -1  0   0 -1  1   0 -1  0
                       0  0  1   1  0  0   0  1  0      -1  1  0  -1  0  0  -1  0  1
                       0  0  1   0  1  0   1  0  0       1 -1  0   0 -1  0   0 -1  1
                       0  0 -1   1  0 -1   0  1 -1      -1  1  0  -1  0  1  -1  0  0
           tolvrs1     1.00000000E-18
           tolvrs2     0.00000000E+00
           tolvrs3     1.00000000E-08
           tolwfr1     0.00000000E+00
           tolwfr2     1.00000000E-22
           tolwfr3     0.00000000E+00
            typat      1  2
              wtk1       0.09375    0.09375    0.09375    0.18750    0.09375    0.09375
                         0.09375    0.18750    0.03125    0.03125
              wtk2       0.00781    0.00781    0.00781    0.00781    0.00781    0.00781
                         0.00781    0.00781    0.00781    0.00781    0.00781    0.00781
                         0.00781    0.00781    0.00781    0.00781    0.00781    0.00781
                         0.00781    0.00781    0.00781    0.00781    0.00781    0.00781
                         0.00781    0.00781    0.00781    0.00781    0.00781    0.00781
                         0.00781    0.00781    0.00781    0.00781    0.00781    0.00781
                         0.00781    0.00781    0.00781    0.00781    0.00781    0.00781
                         0.00781    0.00781    0.00781    0.00781    0.00781    0.00781
                         0.00781    0.00781
              wtk3       0.00781    0.00781    0.00781    0.00781    0.00781    0.00781
                         0.00781    0.00781    0.00781    0.00781    0.00781    0.00781
                         0.00781    0.00781    0.00781    0.00781    0.00781    0.00781
                         0.00781    0.00781    0.00781    0.00781    0.00781    0.00781
                         0.00781    0.00781    0.00781    0.00781    0.00781    0.00781
                         0.00781    0.00781    0.00781    0.00781    0.00781    0.00781
                         0.00781    0.00781    0.00781    0.00781    0.00781    0.00781
                         0.00781    0.00781    0.00781    0.00781    0.00781    0.00781
                         0.00781    0.00781
                       outvars : Printing only first  50 k-points.
           xangst      0.0000000000E+00  0.0000000000E+00  0.0000000000E+00
                       1.4036425458E+00  1.4036425458E+00  1.4036425458E+00
            xcart      0.0000000000E+00  0.0000000000E+00  0.0000000000E+00
                       2.6525000000E+00  2.6525000000E+00  2.6525000000E+00
             xred      0.0000000000E+00  0.0000000000E+00  0.0000000000E+00
                       2.5000000000E-01  2.5000000000E-01  2.5000000000E-01
            znucl       13.00000   33.00000

================================================================================


- Timing analysis has been suppressed with timopt=0



================================================================================

 Suggested references for the acknowledgment of ABINIT usage.

 The users of ABINIT have little formal obligations with respect to the ABINIT group
 (those specified in the GNU General Public License, http://www.gnu.org/copyleft/gpl.txt).
 However, it is common practice in the scientific literature,
 to acknowledge the efforts of people that have made the research possible.
 In this spirit, please find below suggested citations of work written by ABINIT developers,
 corresponding to implementations inside of ABINIT that you have used in the present run.
 Note also that it will be of great value to readers of publications presenting these results,
 to read papers enabling them to understand the theoretical formalism and details
 of the ABINIT implementation.
 For information on why they are suggested, see also https://docs.abinit.org/theory/acknowledgments.
-
- [1] The Abinit project: Impact, environment and recent developments.
- Computer Phys. Comm. 248, 107042 (2020).
- X.Gonze, B. Amadon, G. Antonius, F.Arnardi, L.Baguet, J.-M.Beuken,
- J.Bieder, F.Bottin, J.Bouchet, E.Bousquet, N.Brouwer, F.Bruneval,
- G.Brunin, T.Cavignac, J.-B. Charraud, Wei Chen, M.Cote, S.Cottenier,
- J.Denier, G.Geneste, Ph.Ghosez, M.Giantomassi, Y.Gillet, O.Gingras,
- D.R.Hamann, G.Hautier, Xu He, N.Helbig, N.Holzwarth, Y.Jia, F.Jollet,
- W.Lafargue-Dit-Hauret, K.Lejaeghere, M.A.L.Marques, A.Martin, C.Martins,
- H.P.C. Miranda, F.Naccarato, K. Persson, G.Petretto, V.Planes, Y.Pouillon,
- S.Prokhorenko, F.Ricci, G.-M.Rignanese, A.H.Romero, M.M.Schmitt, M.Torrent,
- M.J.van Setten, B.Van Troeye, M.J.Verstraete, G.Zerah and J.W.Zwanzig
- Comment: the fifth generic paper describing the ABINIT project.
- Note that a version of this paper, that is not formatted for Computer Phys. Comm. 
- is available at https://www.abinit.org/sites/default/files/ABINIT20.pdf .
- The licence allows the authors to put it on the Web.
- DOI and bibtex: see https://docs.abinit.org/theory/bibliography/#gonze2020
-
- [2] First-principles responses of solids to atomic displacements and homogeneous electric fields:,
- implementation of a conjugate-gradient algorithm. X. Gonze, Phys. Rev. B55, 10337 (1997).
- Comment: Non-vanishing rfphon and/or rfelfd, in the norm-conserving case.
- DOI and bibtex: see https://docs.abinit.org/theory/bibliography/#gonze1997
-
- [3] Dynamical matrices, Born effective charges, dielectric permittivity tensors, and ,
- interatomic force constants from density-functional perturbation theory,
- X. Gonze and C. Lee, Phys. Rev. B55, 10355 (1997).
- Comment: Non-vanishing rfphon and/or rfelfd, in the norm-conserving case.
- DOI and bibtex: see https://docs.abinit.org/theory/bibliography/#gonze1997a
-
- [4] Ab initio pseudopotentials for electronic structure calculations of poly-atomic systems, 
- using density-functional theory.
- M. Fuchs and, M. Scheffler, Comput. Phys. Commun. 119, 67 (1999).
- Comment: Some pseudopotential generated using the FHI code were used.
- DOI and bibtex: see https://docs.abinit.org/theory/bibliography/#fuchs1999
-
- [5] ABINIT: Overview, and focus on selected capabilities
- J. Chem. Phys. 152, 124102 (2020).
- A. Romero, D.C. Allan, B. Amadon, G. Antonius, T. Applencourt, L.Baguet,
- J.Bieder, F.Bottin, J.Bouchet, E.Bousquet, F.Bruneval,
- G.Brunin, D.Caliste, M.Cote,
- J.Denier, C. Dreyer, Ph.Ghosez, M.Giantomassi, Y.Gillet, O.Gingras,
- D.R.Hamann, G.Hautier, F.Jollet, G. Jomard,
- A.Martin, 
- H.P.C. Miranda, F.Naccarato, G.Petretto, N.A. Pike, V.Planes,
- S.Prokhorenko, T. Rangel, F.Ricci, G.-M.Rignanese, M.Royo, M.Stengel, M.Torrent,
- M.J.van Setten, B.Van Troeye, M.J.Verstraete, J.Wiktor, J.W.Zwanziger, and X.Gonze.
- Comment: a global overview of ABINIT, with focus on selected capabilities .
- Note that a version of this paper, that is not formatted for J. Chem. Phys 
- is available at https://www.abinit.org/sites/default/files/ABINIT20_JPC.pdf .
- The licence allows the authors to put it on the Web.
- DOI and bibtex: see https://docs.abinit.org/theory/bibliography/#romero2020
-
- [6] Recent developments in the ABINIT software package.
- Computer Phys. Comm. 205, 106 (2016).
- X.Gonze, F.Jollet, F.Abreu Araujo, D.Adams, B.Amadon, T.Applencourt,
- C.Audouze, J.-M.Beuken, J.Bieder, A.Bokhanchuk, E.Bousquet, F.Bruneval
- D.Caliste, M.Cote, F.Dahm, F.Da Pieve, M.Delaveau, M.Di Gennaro,
- B.Dorado, C.Espejo, G.Geneste, L.Genovese, A.Gerossier, M.Giantomassi,
- Y.Gillet, D.R.Hamann, L.He, G.Jomard, J.Laflamme Janssen, S.Le Roux,
- A.Levitt, A.Lherbier, F.Liu, I.Lukacevic, A.Martin, C.Martins,
- M.J.T.Oliveira, S.Ponce, Y.Pouillon, T.Rangel, G.-M.Rignanese,
- A.H.Romero, B.Rousseau, O.Rubel, A.A.Shukri, M.Stankovski, M.Torrent,
- M.J.Van Setten, B.Van Troeye, M.J.Verstraete, D.Waroquier, J.Wiktor,
- B.Xu, A.Zhou, J.W.Zwanziger.
- Comment: the fourth generic paper describing the ABINIT project.
- Note that a version of this paper, that is not formatted for Computer Phys. Comm. 
- is available at https://www.abinit.org/sites/default/files/ABINIT16.pdf .
- The licence allows the authors to put it on the Web.
- DOI and bibtex: see https://docs.abinit.org/theory/bibliography/#gonze2016
-
- Proc.   0 individual time (sec): cpu=          6.8  wall=          6.9

================================================================================

 Calculation completed.
.Delivered  20 WARNINGs and   4 COMMENTs to log file.
+Overall time at end (sec) : cpu=          6.8  wall=          6.9
