 +-------------------------------------------------+
 |                                                 |
 |      CCC   AA    SSS  TTTTT  EEEEE  PPPP        |
 |     C     A  A  S       T    E      P   P       |
 |     C     AAAA   SS     T    EEE    PPPP        |
 |     C     A  A     S    T    E      P           |
 |      CCC  A  A  SSS     T    EEEEE  P           |
 |                                                 |
 +-------------------------------------------------+
 |                                                 |
 | Welcome to Academic Release CASTEP version 6.1  |
 | Ab Initio Total Energy Program                  |
 |                                                 |
 | Authors:                                        |
 | M. Segall, M. Probert, C. Pickard, P. Hasnip,   |
 | S. Clark, K. Refson, J. R. Yates, M. Payne      |
 |                                                 |
 | Contributors:                                   |
 | P. Lindan, P. Haynes, J. White, V. Milman,      |
 | N. Govind, M. Gibson, P. Tulip, V. Cocula,      |
 | B. Montanari, D. Quigley, M. Glover,            |
 | L. Bernasconi, A. Perlov, M. Plummer,           |
 | E. McNellis, J. Meyer, J. Gale, D. Jochym       |
 | J. Aarons, B. Walker, R. Gillen                 |
 |                                                 |
 | Copyright (c) 2000 - 2012                       |
 |                                                 |
 |     Distributed under the terms of an           |
 |     Agreement between the United Kingdom        |
 |     Car-Parrinello (UKCP) Consortium,           |
 |     Daresbury Laboratory and Accelrys, Inc.     |
 |                                                 |
 | Please cite                                     |
 |                                                 |
 |     "First principles methods using CASTEP"     |
 |                                                 |
 |         Zeitschrift fuer Kristallographie       |
 |           220(5-6) pp. 567-570 (2005)           |
 |                                                 |
 | S. J. Clark, M. D. Segall, C. J. Pickard,       |
 | P. J. Hasnip, M. J. Probert, K. Refson,         |
 | M. C. Payne                                     |
 |                                                 |
 |       in all publications arising from          |
 |              your use of CASTEP                 |
 |                                                 |
 +-------------------------------------------------+


 Compiled for linux_x86_64_gfortran on Mon Apr  1 17:43:25 2013
 from source code version d4bbaf1a1213+  2012-10-31
 using fast optimisation, fftw3 FFTs and atlas LAPACK and BLAS.

 +-------------------------------------------------+
 |                                                 |
 |  D D D D    F F F F F  P P P P     T T T T T    |
 |  D       D  F          P       P       T        |
 |  D       D  F F F F    P P P P         T        |
 |  D       D  F          P               T        |
 |  D D D D    F          P               T        |
 |                                                 |
 +-------------------------------------------------+
 |                                                 |
 | Welcome to Castep Linear Response (DFPT)        |
 |                                                 |
 | Copyright (c) 2006 - 2012                       |
 |                                                 |
 | Please cite the following publications in all   |
 | work arising from your use of CASTEP LR.        |
 |                                                 |
 | K. Refson, S. J. Clark and P. R. Tulip          |
 | Variational density functional perturbation     |
 | theory for dielectrics and lattice dynamics     |
 | Phys. Rev. B 73(15), 155114 (2006)              |
 +-------------------------------------------------+


 Pseudo atomic calculation performed for O 2s2 2p4

 Converged in 34 iterations to a total energy of -429.7240 eV


 Pseudo atomic calculation performed for Mg 3s2

 Converged in 19 iterations to a total energy of -22.8912 eV

 Calculation parallelised over 4 processes.
 Data is distributed by k-point(4-way)

 ************************************ Title ************************************
 

 ***************************** General Parameters ******************************
  
 output verbosity                               : normal  (1)
 write checkpoint data to                       : phonon.check
 type of calculation                            : Phonon followed by E-field
 stress calculation                             : on
 density difference calculation                 : off
 electron localisation func (ELF) calculation   : off
 Hirshfeld analysis                             : off
 unlimited duration calculation
 timing information                             : on
 memory usage estimate                          : on
 write final potential to formatted file        : off
 write final density to formatted file          : off
 write BibTeX reference list                    : on
  
 output         length unit                     : A
 output           mass unit                     : amu
 output           time unit                     : ps
 output         charge unit                     : e
 output         energy unit                     : eV
 output          force unit                     : eV/A
 output       velocity unit                     : A/ps
 output       pressure unit                     : GPa
 output     inv_length unit                     : 1/A
 output      frequency unit                     : cm-1
 output force constant unit                     : eV/A**2
 output         volume unit                     : A**3
 output   IR intensity unit                     : (D/A)**2/amu
 output         dipole unit                     : D
 output         efield unit                     : eV/A/e
 output        entropy unit                     : J/mol/K
  
 wavefunctions paging                           : none
 random number generator seed                   : randomised (185707239)
 data distribution                              : optimal for this architecture
 optimization strategy                          : maximize speed(+++)

 *********************** Exchange-Correlation Parameters ***********************
  
 using functional                               : Perdew Burke Ernzerhof
 Divergence correction                          : off
 DFT+D: Semi-empirical dispersion correction    : off

 ************************* Pseudopotential Parameters **************************
  
 pseudopotential representation                 : reciprocal space
 <beta|phi> representation                      : reciprocal space

 **************************** Basis Set Parameters *****************************
  
 plane wave basis set cut-off                   :  1000.0000   eV
 size of standard grid                          :     2.0000
 size of   fine   gmax                          :    32.4018   1/A
 largest prime factor in FFT                    :          5
 finite basis set correction                    : automatic
 number of sample energies                      :          3
           sample  spacing                      :     5.0000   eV

 **************************** Electronic Parameters ****************************
  
 number of  electrons                           :  8.000    
 net charge of system                           :  0.000    
 net spin   of system                           :  0.000    
 number of  up  spins                           :  4.000    
 number of down spins                           :  4.000    
 treating system as non-spin-polarized
 number of bands                                :        100

 ********************* Electronic Minimization Parameters **********************
  
 Method: Treating system as non-metallic,
         and number of  SD  steps               :          1
         and number of  CG  steps               :          4
  
 total energy / atom convergence tol.           : 0.1000E-07   eV
 eigen-energy convergence tolerance             : 0.2000E-09   eV
 max force / atom convergence tol.              : ignored
 convergence tolerance window                   :          3   cycles
 max. number of SCF cycles                      :        100
 periodic dipole correction                     : NONE

 ************************** Density Mixing Parameters **************************
  
 density-mixing scheme                          : Pulay
 max. length of mixing history                  :          8
 charge density mixing amplitude                : 0.8000    
 cut-off energy for mixing                      :  1000.       eV
 charge density mixing g-vector                 :  1.500       1/A

 *********************** Population Analysis Parameters ************************
  
 Population analysis with cutoff                :  3.000       A

 ****************************** Phonon Parameters ******************************
  
 phonon calculation method                      : linear response
 phonon convergence tolerance                   : 0.1000E-04   eV/A**2
 max. number of phonon cycles                   :        200
 max. number of phonon CG steps                 :          0
 convergence tolerance window                   :          2   cycles
 DFPT solver method                             : AllBands (Gonze variational method)
 preconditioning scheme                         : TPA     
 fine phonon calculation method                 : none
 LO/TO splitting term                           : not included
 acoustic phonon sum rule                       : correct D(q) in recip-space
 Born effective charges                         : calculated
 Born charge sum rule                           : explicitly enforced
 Raman intensities                              : not calculated
 phonon k-points                                : use reduced set
 phonon DOS                                     : not calculated
 no timed backups

 ***************************** E-Field Parameters ******************************
  
 E-field convergence tolerance                  : 0.1000E-04   A**3
 DFPT solver method                             : AllBands (Gonze variational method)
 ionic contribution to permittivity             : included
 treating system as a crystal, 
 => ignoring 3 lowest modes when calculating ionic  contribution to permittivity
 calculation with frequency spacing             : 0.4556E-05   cm-1
 Q-factor for lineshape broadening              :    50.0000
 max. number of E-field cycles                  :        200
 max. number of E-field CG steps                :          0
 convergence tolerance window                   :          2   cycles
 band convergence tolerance                     : 0.1000E-08   eV

 *******************************************************************************
  

                           -------------------------------
                                      Unit Cell
                           -------------------------------
        Real Lattice(A)                      Reciprocal Lattice(1/A)
   2.1234631   2.1234631  -0.0000000        1.4794665   1.4794665  -1.4794665
   2.1234631  -0.0000000   2.1234631        1.4794665  -1.4794665   1.4794665
   0.0000000   2.1234631   2.1234631       -1.4794665   1.4794665   1.4794665

                       Lattice parameters(A)       Cell Angles
                    a =    3.003030          alpha =   60.000000
                    b =    3.003030          beta  =   60.000000
                    c =    3.003030          gamma =   60.000000

                       Current cell volume =   19.149797       A**3

                           -------------------------------
                                     Cell Contents
                           -------------------------------
                         Total number of ions in cell =    2
                      Total number of species in cell =    2
                        Max number of any one species =    1

            xxxxxxxxxxxxxxxxxxxxxxxxxxxxxxxxxxxxxxxxxxxxxxxxxxxxxxxxxxxx
            x  Element    Atom        Fractional coordinates of atoms  x
            x            Number           u          v          w      x
            x----------------------------------------------------------x
            x  O            1         0.500000   0.500000   0.500000   x
            x  Mg           1         0.000000   0.000000   0.000000   x
            xxxxxxxxxxxxxxxxxxxxxxxxxxxxxxxxxxxxxxxxxxxxxxxxxxxxxxxxxxxx


                         No user defined ionic velocities

                           -------------------------------
                                   Details of Species
                           -------------------------------

                               Mass of species in AMU
                                    O   15.9994000
                                    Mg   24.3050000

                          Electric Quadrupole Moment (Barn)
                                    O   -0.0255800 Isotope 17
                                    Mg    0.1994000 Isotope 25

                          Files used for pseudopotentials:
                                    O /home/jkendric/Data/PseudoPotentials/O_01.recpot
                                    Mg /home/jkendric/Data/PseudoPotentials/Mg_00.recpot

                           -------------------------------
                              k-Points For BZ Sampling
                           -------------------------------
                       MP grid size for SCF calculation is 11 11 11
                         Number of kpoints used =          56

             +++++++++++++++++++++++++++++++++++++++++++++++++++++++
             +  Number       Fractional coordinates        Weight  +
             +-----------------------------------------------------+
             +     1  -0.454545  -0.454545  -0.454545   0.0060105  +
             +     2  -0.454545  -0.181818   0.090909   0.0360631  +
             +     3  -0.454545  -0.181818   0.272727   0.0180316  +
             +     4  -0.454545  -0.090909  -0.454545   0.0180316  +
             +     5  -0.454545   0.000000   0.454545   0.0090158  +
             +     6  -0.454545   0.090909  -0.363636   0.0180316  +
             +     7  -0.454545   0.363636   0.000000   0.0180316  +
             +     8  -0.363636  -0.363636  -0.363636   0.0060105  +
             +     9  -0.363636  -0.363636  -0.181818   0.0180316  +
             +    10  -0.363636  -0.363636   0.363636   0.0180316  +
             +    11  -0.363636   0.363636  -0.090909   0.0360631  +
             +    12  -0.363636   0.363636   0.272727   0.0180316  +
             +    13  -0.272727  -0.363636  -0.090909   0.0180316  +
             +    14  -0.272727   0.000000  -0.454545   0.0180316  +
             +    15  -0.181818  -0.181818  -0.363636   0.0090158  +
             +    16  -0.181818  -0.181818   0.000000   0.0045079  +
             +    17  -0.181818   0.363636   0.272727   0.0360631  +
             +    18  -0.090909  -0.454545   0.363636   0.0180316  +
             +    19  -0.090909  -0.272727   0.181818   0.0180316  +
             +    20  -0.090909  -0.272727   0.272727   0.0360631  +
             +    21  -0.090909  -0.181818  -0.454545   0.0360631  +
             +    22  -0.090909  -0.181818  -0.272727   0.0180316  +
             +    23  -0.090909  -0.181818  -0.181818   0.0180316  +
             +    24  -0.090909  -0.181818  -0.090909   0.0090158  +
             +    25  -0.090909  -0.090909  -0.454545   0.0180316  +
             +    26  -0.090909  -0.090909  -0.272727   0.0180316  +
             +    27  -0.090909  -0.090909  -0.090909   0.0060105  +
             +    28  -0.090909  -0.090909   0.272727   0.0180316  +
             +    29  -0.090909  -0.090909   0.363636   0.0180316  +
             +    30  -0.090909   0.000000  -0.090909   0.0045079  +
             +    31  -0.090909   0.090909  -0.272727   0.0360631  +
             +    32  -0.090909   0.181818  -0.454545   0.0360631  +
             +    33  -0.090909   0.272727   0.272727   0.0180316  +
             +    34  -0.090909   0.454545  -0.181818   0.0360631  +
             +    35   0.000000  -0.181818   0.000000   0.0060105  +
             +    36   0.000000   0.000000   0.000000   0.0007513  +
             +    37   0.181818  -0.454545  -0.272727   0.0180316  +
             +    38   0.272727   0.000000  -0.454545   0.0180316  +
             +    39   0.272727   0.000000  -0.272727   0.0090158  +
             +    40   0.272727   0.000000  -0.181818   0.0180316  +
             +    41   0.272727   0.000000  -0.090909   0.0180316  +
             +    42   0.272727   0.000000   0.000000   0.0060105  +
             +    43   0.272727   0.000000   0.090909   0.0180316  +
             +    44   0.272727   0.000000   0.272727   0.0045079  +
             +    45   0.272727   0.090909   0.454545   0.0360631  +
             +    46   0.272727   0.272727   0.090909   0.0180316  +
             +    47   0.272727   0.454545   0.454545   0.0180316  +
             +    48   0.363636  -0.272727   0.363636   0.0090158  +
             +    49   0.363636  -0.181818   0.000000   0.0180316  +
             +    50   0.363636  -0.181818   0.181818   0.0180316  +
             +    51   0.363636   0.000000   0.363636   0.0045079  +
             +    52   0.363636   0.090909   0.454545   0.0180316  +
             +    53   0.363636   0.181818  -0.363636   0.0360631  +
             +    54   0.454545  -0.181818   0.000000   0.0180316  +
             +    55   0.454545  -0.090909  -0.090909   0.0180316  +
             +    56   0.454545   0.454545   0.000000   0.0045079  +
             +++++++++++++++++++++++++++++++++++++++++++++++++++++++

                           -------------------------------
                               Symmetry and Constraints
                           -------------------------------

                      Number of symmetry operations   =          48
                      Number of ionic constraints     =           3
                      Maximum deviation from symmetry = 0.102213E-33     ANG
               Point group of crystal =    32: Oh, m-3m, 4/m -3 2/m
           Set iprint > 1 for details on symmetry rotations/translations

                          Centre of mass is constrained
             Set iprint > 1 for details of linear ionic constraints

                         Number of cell constraints= 5
                         Cell constraints are:  1 1 1 0 0 0

                         External pressure/stress (GPa)
                          0.00000   0.00000   0.00000
                                    0.00000   0.00000
                                              0.00000
  
+---------------- MEMORY AND SCRATCH DISK ESTIMATES PER NODE -----------------+
|                                                     Memory          Disk    |
| Model and support data                               51.7 MB         0.0 MB |
| Electronic energy minimisation requirements          66.7 MB         0.0 MB |
|                                               ----------------------------- |
| Approx. total storage required per node             118.4 MB         0.0 MB |
|                                                                             |
| Requirements will fluctuate during execution and may exceed these estimates |
+-----------------------------------------------------------------------------+
Calculating finite basis set correction with  3 cut-off energies.
Calculating total energy with cut-off of  990.000eV.
------------------------------------------------------------------------ <-- SCF
SCF loop      Energy                           Energy gain       Timer   <-- SCF
                                               per atom          (sec)   <-- SCF
------------------------------------------------------------------------ <-- SCF
Initial   5.53454483E+001                                          1.42  <-- SCF
      1  -4.47548361E+002                    2.51446904E+002      14.54  <-- SCF
      2  -4.66054308E+002                    9.25297379E+000      22.83  <-- SCF
      3  -4.66098528E+002                    2.21099851E-002      31.73  <-- SCF
      4  -4.65373491E+002                   -3.62518354E-001      41.42  <-- SCF
      5  -4.64535263E+002                   -4.19113960E-001      50.99  <-- SCF
      6  -4.64559271E+002                    1.20038609E-002      61.28  <-- SCF
      7  -4.64559154E+002                   -5.87660865E-005      71.85  <-- SCF
      8  -4.64559147E+002                   -3.50417466E-006      82.38  <-- SCF
      9  -4.64559147E+002                    3.89568259E-008      92.75  <-- SCF
     10  -4.64559147E+002                    4.74670608E-010     100.96  <-- SCF
     11  -4.64559147E+002                   -6.34666506E-011     107.51  <-- SCF
------------------------------------------------------------------------ <-- SCF
 
Final energy =  -464.5591467302     eV
(energy not corrected for finite basis set)
 
Calculating total energy with cut-off of  995.000eV.
------------------------------------------------------------------------ <-- SCF
SCF loop      Energy                           Energy gain       Timer   <-- SCF
                                               per atom          (sec)   <-- SCF
------------------------------------------------------------------------ <-- SCF
Initial  -4.64559147E+002                                        108.06  <-- SCF
      1  -4.64559396E+002                    1.24628474E-004     117.14  <-- SCF
      2  -4.64559396E+002                    5.91540119E-009     126.86  <-- SCF
      3  -4.64559396E+002                    6.76062907E-008     136.65  <-- SCF
      4  -4.64559396E+002                    3.24956018E-009     143.48  <-- SCF
      5  -4.64559396E+002                    5.61600101E-009     150.26  <-- SCF
------------------------------------------------------------------------ <-- SCF
 
Final energy =  -464.5593961519     eV
(energy not corrected for finite basis set)
 
Calculating total energy with cut-off of 1000.000eV.
------------------------------------------------------------------------ <-- SCF
SCF loop      Energy                           Energy gain       Timer   <-- SCF
                                               per atom          (sec)   <-- SCF
------------------------------------------------------------------------ <-- SCF
Initial  -4.64559396E+002                                        150.80  <-- SCF
      1  -4.64559640E+002                    1.22013028E-004     160.13  <-- SCF
      2  -4.64559640E+002                    5.61314912E-009     170.12  <-- SCF
      3  -4.64559640E+002                    5.99283727E-008     179.98  <-- SCF
      4  -4.64559640E+002                    3.39748146E-008     189.20  <-- SCF
      5  -4.64559641E+002                    9.76102585E-008     198.65  <-- SCF
      6  -4.64559640E+002                   -1.59322803E-007     207.97  <-- SCF
      7  -4.64559640E+002                    2.12784876E-009     214.38  <-- SCF
      8  -4.64559640E+002                    4.10865598E-012     220.76  <-- SCF
------------------------------------------------------------------------ <-- SCF
 
Final energy =  -464.5596402124     eV
(energy not corrected for finite basis set)
 
 For future reference: finite basis dEtot/dlog(Ecut) =      -0.049098eV
 Total energy corrected for finite basis set =    -464.559625 eV
 Perturbation    1 (of    2): O     1 X at q=( 0.000, 0.000, 0.000):    221.08s
  Parallel strategy changed for perturbation using 126 k-points
  Data is distributed by G-vector(1-way) and k-point(4-way) and band(1-way)
  +---------------- MEMORY AND SCRATCH DISK ESTIMATES PER NODE -----------------+
  |                                                     Memory          Disk    |
  | Model and support data                               50.8 MB         0.0 MB |
  | DFPT phonon calculation requirements                690.4 MB         0.0 MB |
  |                                               ----------------------------- |
  | Approx. total storage required per node             741.2 MB         0.0 MB |
  |                                                                             |
  | Requirements will fluctuate during execution and may exceed these estimates |
  +-----------------------------------------------------------------------------+
 Perturbation    2 (of    2): Mg    1 X at q=( 0.000, 0.000, 0.000):   1440.95s

 Efield perturbation    1:  X                                          2094.78s
  Parallel strategy changed for perturbation using 126 k-points
  Data is distributed by G-vector(1-way) and k-point(4-way) and band(1-way)

 Phonon calculation: q-point   1 (of    1) ( 0.000, 0.000, 0.000):     3021.10s
 -------------------------------------------------------------------------------
 
 ==============================================================================
 +                           Vibrational Frequencies                          +
 +                           -----------------------                          +
 +                                                                            +
 + Performing frequency calculation at  1 wavevector  (q-pt )                 +
 + ========================================================================== +
 +                                                                            +
 + -------------------------------------------------------------------------- +
 +  q-pt=    1 (  0.000000  0.000000  0.000000)     1.0000000000              +
 + -------------------------------------------------------------------------- +
 +  Acoustic sum rule correction <  86.719501 cm-1 applied                    +
 +     N      Frequency irrep.    ir intensity active            raman active + 
 +                (cm-1)         ((D/A)**2/amu)                               + 
 +                                                                            +
 +     1      -0.031107   a          0.0000000  N                       N     + 
 +     2      -0.031107   a          0.0000000  N                       N     + 
 +     3      -0.031107   a          0.0000000  N                       N     + 
 +     4     388.282104   a          9.2907251  Y                       N     + 
 +     5     388.282104   a          9.2907251  Y                       N     + 
 +     6     388.282104   a          9.2907251  Y                       N     + 
 + .......................................................................... +
 +        Character table from group theory analysis of eigenvectors          +
 +                           Point Group =  32, Oh                            +
 + .......................................................................... +
 +  Rep  Mul |    E m_h   2   I m_v  2'  -3   4  -4   3                       +
 +           | ----------------------------------------                       +
 + a T1u   2 |    3   1  -1  -3   1  -1   0   1  -1   0                       +
 ==============================================================================

 ===============================================================================
        Optical Permittivity (f->infinity)             DC Permittivity (f=0)
        ----------------------------------             ---------------------
         3.13969     0.00000     0.00000        10.00326     0.00000     0.00000
         0.00000     3.13969     0.00000         0.00000    10.00326     0.00000
         0.00000     0.00000     3.13969         0.00000     0.00000    10.00326
 ===============================================================================

 ===============================================================================
                                    Polarisabilities (A**3)
                Optical (f->infinity)                       Static  (f=0)
                ---------------------                       -------------
         3.26065     0.00000     0.00000        13.72000     0.00000     0.00000
         0.00000     3.26065     0.00000         0.00000    13.72000     0.00000
         0.00000     0.00000     3.26065         0.00000     0.00000    13.72000
 ===============================================================================
 ===================================================
                   Born Effective Charges
                   ----------------------
   O       1        -1.97472     0.00000     0.00000
                     0.00000    -1.97472     0.00000
                     0.00000     0.00000    -1.97472
   Mg      1         1.97472     0.00000     0.00000
                     0.00000     1.97472     0.00000
                     0.00000     0.00000     1.97472
 ===================================================

 ***************** Symmetrised Forces *****************
 *                                                    *
 *            Cartesian components (eV/A)             *
 * -------------------------------------------------- *
 *                   x            y            z      *
 *                                                    *
 * O         1     -0.00000      0.00000     -0.00000 *
 * Mg        1     -0.00000     -0.00000      0.00000 *
 *                                                    *
 ******************************************************

 *********** Symmetrised Stress Tensor ***********
 *                                               *
 *          Cartesian components (GPa)           *
 * --------------------------------------------- *
 *             x             y             z     *
 *                                               *
 *  x     -0.002945     -0.000000     -0.000000  *
 *  y     -0.000000     -0.002945      0.000000  *
 *  z     -0.000000      0.000000     -0.002945  *
 *                                               *
 *  Pressure:    0.0029                          *
 *                                               *
 *************************************************

 Pseudo atomic calculation performed for O 2s2 2p4

 Converged in 34 iterations to a total energy of -429.7240 eV


 Pseudo atomic calculation performed for Mg 3s2

 Converged in 19 iterations to a total energy of -22.8912 eV

Charge spilling parameter for spin component 1 = 0.32%

     Atomic Populations (Mulliken)
     -----------------------------
Species   Ion     s      p      d      f     Total  Charge (e)
==============================================================
  O        1     1.84   5.14   0.00   0.00   6.98    -0.98
  Mg       1     0.40   0.62   0.00   0.00   1.02     0.98
==============================================================

            Bond              Population      Length (A)
============================================================
          O 1 -- Mg 1              1.35        2.12346
============================================================


Writing model to phonon.check

Writing analysis data to phonon.castep_bin
 
 A BibTeX formatted list of references used in this run has been written to 
 phonon.bib
 
Initialisation time =      0.87 s
Calculation time    =   3022.37 s
Finalisation time   =      0.49 s
Total time          =   3023.74 s
Peak Memory Use     = 789108 kB
  
Overall parallel efficiency rating: Excellent (99%)                             
  
Data was distributed by:-
k-point (4-way); efficiency rating: Excellent (99%)                             
