# epsilon and Z* of atoms 1 13
   3.27607426   -0.00000000    0.00000000    0.00000000    3.27607426    0.00000000    0.00000000    0.00000000    3.23683513 
   2.95996414   -0.02948839   -0.00000000    0.02948839    2.95996414    0.00000000    0.00000000   -0.00000000    2.92951772 
  -2.07319123    0.00000000    0.00000000    0.00000000   -1.87342763    0.25818161    0.00000000    0.35167360   -1.95301181 
