 vasp.5.4.4.18Apr17-6-g9f103f2a35 (build Jan  3 2025 13:41:23) complex           
 executed on     LinuxGNU_vivaldi date 2025.05.18  14:54:18
 running on    8 total cores
 distrk:  each k-point on    8 cores,    1 groups
 distr:  one band on NCORES_PER_BAND=   1 cores,    8 groups


--------------------------------------------------------------------------------------------------------


 INCAR:
 POTCAR:    PAW_PBE Al 04Jan2001                  
 POTCAR:    PAW_PBE O 08Apr2002                   

 ----------------------------------------------------------------------------- 
|                                                                             |
|           W    W    AA    RRRRR   N    N  II  N    N   GGGG   !!!           |
|           W    W   A  A   R    R  NN   N  II  NN   N  G    G  !!!           |
|           W    W  A    A  R    R  N N  N  II  N N  N  G       !!!           |
|           W WW W  AAAAAA  RRRRR   N  N N  II  N  N N  G  GGG   !            |
|           WW  WW  A    A  R   R   N   NN  II  N   NN  G    G                |
|           W    W  A    A  R    R  N    N  II  N    N   GGGG   !!!           |
|                                                                             |
|      For optimal performance we recommend to set                            |
|        NCORE= 4 - approx SQRT( number of cores)                             |
|      NCORE specifies how many cores store one orbital (NPAR=cpu/NCORE).     |
|      This setting can  greatly improve the performance of VASP for DFT.     |
|      The default,   NCORE=1            might be grossly inefficient         |
|      on modern multi-core architectures or massively parallel machines.     |
|      Do your own testing !!!!                                               |
|      Unfortunately you need to use the default for GW and RPA calculations. |
|      (for HF NCORE is supported but not extensively tested yet)             |
|                                                                             |
 ----------------------------------------------------------------------------- 

 POTCAR:    PAW_PBE Al 04Jan2001                  
   VRHFIN =Al: s2p1                                                             
   LEXCH  = PE                                                                  
   EATOM  =    53.5387 eV,    3.9350 Ry                                         
                                                                                
   TITEL  = PAW_PBE Al 04Jan2001                                                
   LULTRA =        F    use ultrasoft PP ?                                      
   IUNSCR =        1    unscreen: 0-lin 1-nonlin 2-no                           
   RPACOR =    1.500    partial core radius                                     
   POMASS =   26.981; ZVAL   =    3.000    mass and valenz                      
   RCORE  =    1.900    outmost cutoff radius                                   
   RWIGS  =    2.650; RWIGS  =    1.402    wigner-seitz radius (au A)           
   ENMAX  =  240.300; ENMIN  =  180.225 eV                                      
   ICORE  =        2    local potential                                         
   LCOR   =        T    correct aug charges                                     
   LPAW   =        T    paw PP                                                  
   EAUG   =  291.052                                                            
   DEXC   =    0.000                                                            
   RMAX   =    1.939    core radius for proj-oper                               
   RAUG   =    1.300    factor for augmentation sphere                          
   RDEP   =    1.966    radius for radial grids                                 
   RDEPT  =    1.856    core radius for aug-charge                              
                                                                                
   Atomic configuration                                                         
    6 entries                                                                   
     n  l   j            E        occ.                                          
     1  0  0.50     -1511.1048   2.0000                                         
     2  0  0.50      -108.1629   2.0000                                         
     2  1  1.50       -69.6402   6.0000                                         
     3  0  0.50        -7.7528   2.0000                                         
     3  1  1.50        -2.7121   1.0000                                         
     3  2  2.50        -2.7212   0.0000                                         
   Description                                                                  
     l       E           TYP  RCUT    TYP  RCUT                                 
     0     -7.7528455     23  1.900                                             
     0     -3.3096929     23  1.900                                             
     1     -2.7120682     23  1.900                                             
     1     13.6058260     23  1.900                                             
     2     -2.7211652      7  1.900                                             
  local pseudopotential read in
  partial core-charges read in
  partial kinetic energy density read in
  atomic valenz-charges read in
  non local Contribution for L=           0  read in
    real space projection operators read in
  non local Contribution for L=           0  read in
    real space projection operators read in
  non local Contribution for L=           1  read in
    real space projection operators read in
  non local Contribution for L=           1  read in
    real space projection operators read in
    PAW grid and wavefunctions read in

   number of l-projection  operators is LMAX  =           4
   number of lm-projection operators is LMMAX =           8

 POTCAR:    PAW_PBE O 08Apr2002                   
   VRHFIN =O: s2p4                                                              
   LEXCH  = PE                                                                  
   EATOM  =   432.3788 eV,   31.7789 Ry                                         
                                                                                
   TITEL  = PAW_PBE O 08Apr2002                                                 
   LULTRA =        F    use ultrasoft PP ?                                      
   IUNSCR =        1    unscreen: 0-lin 1-nonlin 2-no                           
   RPACOR =    1.200    partial core radius                                     
   POMASS =   16.000; ZVAL   =    6.000    mass and valenz                      
   RCORE  =    1.520    outmost cutoff radius                                   
   RWIGS  =    1.550; RWIGS  =    0.820    wigner-seitz radius (au A)           
   ENMAX  =  400.000; ENMIN  =  300.000 eV                                      
   ICORE  =        2    local potential                                         
   LCOR   =        T    correct aug charges                                     
   LPAW   =        T    paw PP                                                  
   EAUG   =  605.392                                                            
   DEXC   =    0.000                                                            
   RMAX   =    1.553    core radius for proj-oper                               
   RAUG   =    1.300    factor for augmentation sphere                          
   RDEP   =    1.550    radius for radial grids                                 
   RDEPT  =    1.329    core radius for aug-charge                              
                                                                                
   Atomic configuration                                                         
    4 entries                                                                   
     n  l   j            E        occ.                                          
     1  0  0.50      -514.6923   2.0000                                         
     2  0  0.50       -23.9615   2.0000                                         
     2  1  0.50        -9.0305   4.0000                                         
     3  2  1.50        -9.5241   0.0000                                         
   Description                                                                  
     l       E           TYP  RCUT    TYP  RCUT                                 
     0    -23.9615318     23  1.200                                             
     0     -9.5240782     23  1.200                                             
     1     -9.0304911     23  1.520                                             
     1      8.1634956     23  1.520                                             
     2     -9.5240782      7  1.500                                             
  local pseudopotential read in
  partial core-charges read in
  partial kinetic energy density read in
  kinetic energy density of atom read in
  atomic valenz-charges read in
  non local Contribution for L=           0  read in
    real space projection operators read in
  non local Contribution for L=           0  read in
    real space projection operators read in
  non local Contribution for L=           1  read in
    real space projection operators read in
  non local Contribution for L=           1  read in
    real space projection operators read in
    PAW grid and wavefunctions read in

   number of l-projection  operators is LMAX  =           4
   number of lm-projection operators is LMMAX =           8


 ----------------------------------------------------------------------------- 
|                                                                             |
|  ADVICE TO THIS USER RUNNING 'VASP/VAMP'   (HEAR YOUR MASTER'S VOICE ...):  |
|                                                                             |
|      You have a (more or less) 'large supercell' and for larger cells       |
|      it might be more efficient to use real space projection opertators     |
|      So try LREAL= Auto  in the INCAR   file.                               |
|      Mind:          For very  accurate calculation you might also keep the  |
|      reciprocal projection scheme          (i.e. LREAL=.FALSE.)             |
|                                                                             |
 ----------------------------------------------------------------------------- 


 ----------------------------------------------------------------------------- 
|                                                                             |
|  ADVICE TO THIS USER RUNNING 'VASP/VAMP'   (HEAR YOUR MASTER'S VOICE ...):  |
|                                                                             |
|      You enforced a specific xc-type in the INCAR file,                     |
|      a different type was found on the POTCAR file                          |
|          I HOPE YOU KNOW, WHAT YOU ARE  DOING                               |
|                                                                             |
 ----------------------------------------------------------------------------- 

  PAW_PBE Al 04Jan2001                  :
 energy of atom  1       EATOM=  -53.5387
 kinetic energy error for atom=    0.0003 (will be added to EATOM!!)
  PAW_PBE O 08Apr2002                   :
 energy of atom  2       EATOM= -432.3788
 kinetic energy error for atom=    0.0224 (will be added to EATOM!!)


 POSCAR: generated by phonopy                    
  positions in direct lattice
  velocities in cartesian coordinates
 exchange correlation table for  LEXCH =       14
   RHO(1)=    0.500       N(1)  =     2000
   RHO(2)=  100.500       N(2)  =     4000



--------------------------------------------------------------------------------------------------------


 ion  position               nearest neighbor table
   1  0.333  0.667  0.019-  14 1.86  16 1.86  18 1.86  25 1.97  27 1.97  29 1.97  11 2.66  10 2.80
                            10 2.80  10 2.80   3 3.23   3 3.23   3 3.23
   2  0.333  0.667  0.315-  17 1.86  15 1.86  13 1.86  20 1.97  22 1.97  24 1.97   8 2.66   5 2.80
                             5 2.80   5 2.80   4 3.23   4 3.23   4 3.23
   3  0.000  0.000  0.148-  18 1.86  14 1.86  16 1.86  13 1.97  17 1.97  15 1.97   5 2.66   4 2.80
                             4 2.80   4 2.80   1 3.23   1 3.23   1 3.23
   4  0.667  0.333  0.185-  17 1.86  13 1.86  15 1.86  16 1.97  14 1.97  18 1.97  10 2.66   3 2.80
                             3 2.80   3 2.80   2 3.23   2 3.23   2 3.23
   5  0.000  0.000  0.352-  24 1.86  22 1.86  20 1.86  13 1.97  15 1.97  17 1.97   3 2.66   2 2.80
                             2 2.80   2 2.80   7 3.23   7 3.23   7 3.23
   6  0.000  0.000  0.648-  23 1.86  21 1.86  19 1.86  26 1.97  28 1.97  30 1.97  12 2.66   9 2.80
                             9 2.80   9 2.80   8 3.23   8 3.23   8 3.23
   7  0.667  0.333  0.481-  22 1.86  20 1.86  24 1.86  19 1.97  23 1.97  21 1.97   9 2.66   8 2.80
                             8 2.80   8 2.80   5 3.23   5 3.23   5 3.23
   8  0.333  0.667  0.519-  21 1.86  19 1.86  23 1.86  22 1.97  20 1.97  24 1.97   2 2.66   7 2.80
                             7 2.80   7 2.80   6 3.23   6 3.23   6 3.23
   9  0.667  0.333  0.685-  30 1.86  28 1.86  26 1.86  19 1.97  21 1.97  23 1.97   7 2.66   6 2.80
                             6 2.80   6 2.80  11 3.23  11 3.23  11 3.23
  10  0.667  0.333  0.981-  25 1.86  27 1.86  29 1.86  14 1.97  16 1.97  18 1.97   4 2.66   1 2.80
                             1 2.80   1 2.80  12 3.23  12 3.23  12 3.23
  11  0.333  0.667  0.815-  30 1.86  26 1.86  28 1.86  25 1.97  29 1.97  27 1.97   1 2.66  12 2.80
                            12 2.80  12 2.80   9 3.23   9 3.23   9 3.23
  12  0.000  0.000  0.852-  29 1.86  25 1.86  27 1.86  28 1.97  26 1.97  30 1.97   6 2.66  11 2.80
                            11 2.80  11 2.80  10 3.23  10 3.23  10 3.23
  13  0.306  0.000  0.250-   4 1.86   2 1.86   3 1.97   5 1.97
  14  0.361  0.333  0.083-   1 1.86   3 1.86   4 1.97  10 1.97
  15  0.000  0.306  0.250-   2 1.86   4 1.86   3 1.97   5 1.97
  16  0.667  0.028  0.083-   1 1.86   3 1.86   4 1.97  10 1.97
  17  0.694  0.694  0.250-   4 1.86   2 1.86   3 1.97   5 1.97
  18  0.972  0.639  0.083-   3 1.86   1 1.86   4 1.97  10 1.97
  19  0.972  0.333  0.583-   8 1.86   6 1.86   9 1.97   7 1.97
  20  0.028  0.667  0.417-   7 1.86   5 1.86   2 1.97   8 1.97
  21  0.667  0.639  0.583-   8 1.86   6 1.86   9 1.97   7 1.97
  22  0.333  0.361  0.417-   7 1.86   5 1.86   2 1.97   8 1.97
  23  0.361  0.028  0.583-   6 1.86   8 1.86   9 1.97   7 1.97
  24  0.639  0.972  0.417-   5 1.86   7 1.86   2 1.97   8 1.97
  25  0.639  0.667  0.917-  10 1.86  12 1.86  11 1.97   1 1.97
  26  0.694  0.000  0.750-  11 1.86   9 1.86   6 1.97  12 1.97
  27  0.333  0.972  0.917-  10 1.86  12 1.86  11 1.97   1 1.97
  28  0.000  0.694  0.750-   9 1.86  11 1.86   6 1.97  12 1.97
  29  0.028  0.361  0.917-  12 1.86  10 1.86  11 1.97   1 1.97
  30  0.306  0.306  0.750-  11 1.86   9 1.86   6 1.97  12 1.97

  LATTYP: Found a hexagonal cell.
 ALAT       =     4.7742263453
 C/A-ratio  =     2.7253335829
  
  Lattice vectors:
  
 A1 = (   4.7742263453,   0.0000000000,  -0.0000000000)
 A2 = (  -2.3871131726,   4.1346012984,   0.0000000000)
 A3 = (  -0.0000000000,   0.0000000000,  13.0113593913)


Analysis of symmetry for initial positions (statically):
=====================================================================
 Subroutine PRICEL returns following result:
 
  LATTYP: Found a trigonal (rhomboedric) cell.
 ALAT       =     5.1389059017
 COS(alpha) =     0.5684464599
  
  Lattice vectors:
  
 A1 = (  -2.3871131726,  -1.3782004328,  -4.3371197971)
 A2 = (   0.0000000000,   2.7564008656,  -4.3371197971)
 A3 = (   2.3871131726,  -1.3782004328,  -4.3371197971)
 
   3 primitive cells build up your supercell.
 

 Routine SETGRP: Setting up the symmetry group for a 
 hexagonal supercell.


 Subroutine GETGRP returns: Found 12 space group operations
 (whereof  6 operations were pure point group operations)
 out of a pool of 24 trial point group operations.


The static configuration has the point symmetry S_6 .
 The point group associated with its full space group is D_3d.


Analysis of symmetry for dynamics (positions and initial velocities):
=====================================================================
 Subroutine PRICEL returns following result:
 
  LATTYP: Found a trigonal (rhomboedric) cell.
 ALAT       =     5.1389059017
 COS(alpha) =     0.5684464599
  
  Lattice vectors:
  
 A1 = (  -2.3871131726,  -1.3782004328,  -4.3371197971)
 A2 = (   0.0000000000,   2.7564008656,  -4.3371197971)
 A3 = (   2.3871131726,  -1.3782004328,  -4.3371197971)
 
   3 primitive cells build up your supercell.
 

 Routine SETGRP: Setting up the symmetry group for a 
 hexagonal supercell.


 Subroutine GETGRP returns: Found 12 space group operations
 (whereof  6 operations were pure point group operations)
 out of a pool of 24 trial point group operations.


The dynamic configuration has the point symmetry S_6 .
 The point group associated with its full space group is D_3d.


 Subroutine INISYM returns: Found 12 space group operations
 (whereof  6 operations are pure point group operations),
 and found     3 'primitive' translations



 KPOINTS: Regular k-point mesh                    

Automatic generation of k-mesh.
Space group operators:
 irot       det(A)        alpha          n_x          n_y          n_z        tau_x        tau_y        tau_z
    1     1.000000     0.000000     1.000000     0.000000     0.000000    -0.000000     0.000000    -0.000000
    2    -1.000000     0.000000     1.000000     0.000000     0.000000    -0.000000     0.000000    -0.000000
    3     1.000000   120.000000     0.000000     0.000000    -1.000000    -0.000000     0.000000    -0.000000
    4    -1.000000   120.000000     0.000000     0.000000    -1.000000    -0.000000     0.000000    -0.000000
    5     1.000000   120.000000     0.000000     0.000000     1.000000    -0.000000     0.000000    -0.000000
    6    -1.000000   120.000000     0.000000     0.000000     1.000000    -0.000000     0.000000    -0.000000
    7     1.000000   180.000000     1.000000     0.000000     0.000000    -0.000000     0.000000    -0.500000
    8    -1.000000   180.000000     1.000000     0.000000     0.000000    -0.000000     0.000000    -0.500000
    9     1.000000   180.000000     0.500000    -0.866025     0.000000    -0.000000     0.000000    -0.500000
   10    -1.000000   180.000000     0.500000    -0.866025     0.000000    -0.000000     0.000000    -0.500000
   11     1.000000   180.000000    -0.500000    -0.866025     0.000000    -0.000000     0.000000    -0.500000
   12    -1.000000   180.000000    -0.500000    -0.866025     0.000000    -0.000000     0.000000    -0.500000
 
 Subroutine IBZKPT returns following result:
 ===========================================
 
 Found     10 irreducible k-points:
 
 Following reciprocal coordinates:
            Coordinates               Weight
  0.000000  0.000000  0.250000      2.000000
  0.166667  0.000000  0.250000      6.000000
  0.333333  0.000000  0.250000      6.000000
  0.500000  0.000000  0.250000      6.000000
 -0.333333  0.000000  0.250000      6.000000
 -0.166667  0.000000  0.250000      6.000000
  0.166667  0.166667  0.250000     12.000000
  0.333333  0.166667  0.250000     12.000000
  0.500000  0.166667  0.250000     12.000000
  0.333333  0.333333  0.250000      4.000000
 
 Following cartesian coordinates:
            Coordinates               Weight
  0.000000  0.000000  0.019214      2.000000
  0.034910  0.020155  0.019214      6.000000
  0.069819  0.040310  0.019214      6.000000
  0.104729  0.060465  0.019214      6.000000
 -0.069819 -0.040310  0.019214      6.000000
 -0.034910 -0.020155  0.019214      6.000000
  0.034910  0.060465  0.019214     12.000000
  0.069819  0.080620  0.019214     12.000000
  0.104729  0.100776  0.019214     12.000000
  0.069819  0.120931  0.019214      4.000000
 
 
 Subroutine IBZKPT_HF returns following result:
 ==============================================
 
 Found     72 k-points in 1st BZ
 the following     72 k-points will be used (e.g. in the exchange kernel)
 Following reciprocal coordinates:   # in IRBZ
  0.000000  0.000000  0.250000    0.01388889   1 t-inv F
  0.166667  0.000000  0.250000    0.01388889   2 t-inv F
  0.333333  0.000000  0.250000    0.01388889   3 t-inv F
  0.500000  0.000000  0.250000    0.01388889   4 t-inv F
 -0.333333  0.000000  0.250000    0.01388889   5 t-inv F
 -0.166667  0.000000  0.250000    0.01388889   6 t-inv F
  0.166667  0.166667  0.250000    0.01388889   7 t-inv F
  0.333333  0.166667  0.250000    0.01388889   8 t-inv F
  0.500000  0.166667  0.250000    0.01388889   9 t-inv F
  0.333333  0.333333  0.250000    0.01388889  10 t-inv F
 -0.000000 -0.000000 -0.250000    0.01388889   1 t-inv F
 -0.166667 -0.000000 -0.250000    0.01388889   2 t-inv F
 -0.166667  0.166667  0.250000    0.01388889   2 t-inv F
  0.166667 -0.166667 -0.250000    0.01388889   2 t-inv F
  0.000000 -0.166667  0.250000    0.01388889   2 t-inv F
 -0.000000  0.166667 -0.250000    0.01388889   2 t-inv F
 -0.333333 -0.000000 -0.250000    0.01388889   3 t-inv F
 -0.333333  0.333333  0.250000    0.01388889   3 t-inv F
  0.333333 -0.333333 -0.250000    0.01388889   3 t-inv F
  0.000000 -0.333333  0.250000    0.01388889   3 t-inv F
 -0.000000  0.333333 -0.250000    0.01388889   3 t-inv F
 -0.500000 -0.000000 -0.250000    0.01388889   4 t-inv F
 -0.500000  0.500000  0.250000    0.01388889   4 t-inv F
  0.500000 -0.500000 -0.250000    0.01388889   4 t-inv F
  0.000000 -0.500000  0.250000    0.01388889   4 t-inv F
 -0.000000  0.500000 -0.250000    0.01388889   4 t-inv F
  0.333333 -0.000000 -0.250000    0.01388889   5 t-inv F
  0.333333 -0.333333  0.250000    0.01388889   5 t-inv F
 -0.333333  0.333333 -0.250000    0.01388889   5 t-inv F
  0.000000  0.333333  0.250000    0.01388889   5 t-inv F
 -0.000000 -0.333333 -0.250000    0.01388889   5 t-inv F
  0.166667 -0.000000 -0.250000    0.01388889   6 t-inv F
  0.166667 -0.166667  0.250000    0.01388889   6 t-inv F
 -0.166667  0.166667 -0.250000    0.01388889   6 t-inv F
  0.000000  0.166667  0.250000    0.01388889   6 t-inv F
 -0.000000 -0.166667 -0.250000    0.01388889   6 t-inv F
 -0.166667 -0.166667 -0.250000    0.01388889   7 t-inv F
 -0.333333  0.166667  0.250000    0.01388889   7 t-inv F
  0.333333 -0.166667 -0.250000    0.01388889   7 t-inv F
  0.166667 -0.333333  0.250000    0.01388889   7 t-inv F
 -0.166667  0.333333 -0.250000    0.01388889   7 t-inv F
  0.166667 -0.333333 -0.250000    0.01388889   7 t-inv F
 -0.166667  0.333333  0.250000    0.01388889   7 t-inv F
 -0.333333  0.166667 -0.250000    0.01388889   7 t-inv F
  0.333333 -0.166667  0.250000    0.01388889   7 t-inv F
  0.166667  0.166667 -0.250000    0.01388889   7 t-inv F
 -0.166667 -0.166667  0.250000    0.01388889   7 t-inv F
 -0.333333 -0.166667 -0.250000    0.01388889   8 t-inv F
 -0.500000  0.333333  0.250000    0.01388889   8 t-inv F
  0.500000 -0.333333 -0.250000    0.01388889   8 t-inv F
  0.166667 -0.500000  0.250000    0.01388889   8 t-inv F
 -0.166667  0.500000 -0.250000    0.01388889   8 t-inv F
  0.333333 -0.500000 -0.250000    0.01388889   8 t-inv F
 -0.333333  0.500000  0.250000    0.01388889   8 t-inv F
 -0.500000  0.166667 -0.250000    0.01388889   8 t-inv F
  0.500000 -0.166667  0.250000    0.01388889   8 t-inv F
  0.166667  0.333333 -0.250000    0.01388889   8 t-inv F
 -0.166667 -0.333333  0.250000    0.01388889   8 t-inv F
 -0.500000 -0.166667 -0.250000    0.01388889   9 t-inv F
 -0.666667  0.500000  0.250000    0.01388889   9 t-inv F
  0.666667 -0.500000 -0.250000    0.01388889   9 t-inv F
  0.166667 -0.666667  0.250000    0.01388889   9 t-inv F
 -0.166667  0.666667 -0.250000    0.01388889   9 t-inv F
  0.500000 -0.666667 -0.250000    0.01388889   9 t-inv F
 -0.500000  0.666667  0.250000    0.01388889   9 t-inv F
 -0.666667  0.166667 -0.250000    0.01388889   9 t-inv F
  0.666667 -0.166667  0.250000    0.01388889   9 t-inv F
  0.166667  0.500000 -0.250000    0.01388889   9 t-inv F
 -0.166667 -0.500000  0.250000    0.01388889   9 t-inv F
 -0.333333 -0.333333 -0.250000    0.01388889  10 t-inv F
  0.333333 -0.666667 -0.250000    0.01388889  10 t-inv F
 -0.333333  0.666667  0.250000    0.01388889  10 t-inv F


--------------------------------------------------------------------------------------------------------




 Dimension of arrays:
   k-points           NKPTS =     10   k-points in BZ     NKDIM =     10   number of bands    NBANDS=     88
   number of dos      NEDOS =    301   number of ions     NIONS =     30
   non local maximal  LDIM  =      4   non local SUM 2l+1 LMDIM =      8
   total plane-waves  NPLWV = 124416
   max r-space proj   IRMAX =      1   max aug-charges    IRDMAX= 151008
   dimension x,y,z NGX =    36 NGY =   36 NGZ =   96
   dimension x,y,z NGXF=    72 NGYF=   72 NGZF=  192
   support grid    NGXF=   144 NGYF=  144 NGZF=  384
   ions per type =              12  18
   NGX,Y,Z   is equivalent  to a cutoff of  12.54, 12.54, 12.27 a.u.
   NGXF,Y,Z  is equivalent  to a cutoff of  25.07, 25.07, 24.53 a.u.

 SYSTEM =  unknown system                          
 POSCAR =  generated by phonopy                    

 Startparameter for this run:
   NWRITE =      2    write-flag & timer
   PREC   = accura    normal or accurate (medium, high low for compatibility)
   ISTART =      0    job   : 0-new  1-cont  2-samecut
   ICHARG =      2    charge: 1-file 2-atom 10-const
   ISPIN  =      1    spin polarized calculation?
   LNONCOLLINEAR =      F non collinear calculations
   LSORBIT =      F    spin-orbit coupling
   INIWAV =      1    electr: 0-lowe 1-rand  2-diag
   LASPH  =      F    aspherical Exc in radial PAW
   METAGGA=      F    non-selfconsistent MetaGGA calc.

 Electronic Relaxation 1
   ENCUT  =  500.0 eV  36.75 Ry    6.06 a.u.   8.70  8.70 23.72*2*pi/ulx,y,z
   ENINI  =  500.0     initial cutoff
   ENAUG  =  605.4 eV  augmentation charge cutoff
   NELM   =     60;   NELMIN=  5; NELMDL=  0     # of ELM steps 
   EDIFF  = 0.1E-07   stopping-criterion for ELM
   LREAL  =      F    real-space projection
   NLSPLINE    = F    spline interpolate recip. space projectors
   LCOMPAT=      F    compatible to vasp.4.4
   GGA_COMPAT  = T    GGA compatible to vasp.4.4-vasp.4.6
   LMAXPAW     = -100 max onsite density
   LMAXMIX     =    4 max onsite mixed and CHGCAR
   VOSKOWN=      0    Vosko Wilk Nusair interpolation
   ROPT   =    0.00000   0.00000
 Ionic relaxation
   EDIFFG = 0.1E-06   stopping-criterion for IOM
   NSW    =      0    number of steps for IOM
   NBLOCK =      1;   KBLOCK =      1    inner block; outer block 
   IBRION =     -1    ionic relax: 0-MD 1-quasi-New 2-CG
   NFREE  =      0    steps in history (QN), initial steepest desc. (CG)
   ISIF   =      2    stress and relaxation
   IWAVPR =     10    prediction:  0-non 1-charg 2-wave 3-comb
   ISYM   =      2    0-nonsym 1-usesym 2-fastsym
   LCORR  =      T    Harris-Foulkes like correction to forces

   POTIM  = 0.5000    time-step for ionic-motion
   TEIN   =    0.0    initial temperature
   TEBEG  =    0.0;   TEEND  =   0.0 temperature during run
   SMASS  =  -3.00    Nose mass-parameter (am)
   estimated Nose-frequenzy (Omega)   =  0.10E-29 period in steps =****** mass=  -0.521E-27a.u.
   SCALEE = 1.0000    scale energy and forces
   NPACO  =    256;   APACO  = 16.0  distance and # of slots for P.C.
   PSTRESS=    0.0 pullay stress

  Mass of Ions in am
   POMASS =  26.98 16.00
  Ionic Valenz
   ZVAL   =   3.00  6.00
  Atomic Wigner-Seitz radii
   RWIGS  =  -1.00 -1.00
  virtual crystal weights 
   VCA    =   1.00  1.00
   NELECT =     144.0000    total number of electrons
   NUPDOWN=      -1.0000    fix difference up-down

 DOS related values:
   EMIN   =  10.00;   EMAX   =-10.00  energy-range for DOS
   EFERMI =   0.00
   ISMEAR =     0;   SIGMA  =   0.01  broadening in eV -4-tet -1-fermi 0-gaus

 Electronic relaxation 2 (details)
   IALGO  =     38    algorithm
   LDIAG  =      T    sub-space diagonalisation (order eigenvalues)
   LSUBROT=      F    optimize rotation matrix (better conditioning)
   TURBO    =      0    0=normal 1=particle mesh
   IRESTART =      0    0=no restart 2=restart with 2 vectors
   NREBOOT  =      0    no. of reboots
   NMIN     =      0    reboot dimension
   EREF     =   0.00    reference energy to select bands
   IMIX   =      4    mixing-type and parameters
     AMIX     =   0.40;   BMIX     =  1.00
     AMIX_MAG =   1.60;   BMIX_MAG =  1.00
     AMIN     =   0.10
     WC   =   100.;   INIMIX=   1;  MIXPRE=   1;  MAXMIX= -45

 Intra band minimization:
   WEIMIN = 0.0000     energy-eigenvalue tresh-hold
   EBREAK =  0.28E-10  absolut break condition
   DEPER  =   0.30     relativ break condition  

   TIME   =   0.40     timestep for ELM

  volume/ion in A,a.u.               =       8.56        57.77
  Fermi-wavevector in a.u.,A,eV,Ry     =   1.349924  2.550986 24.793815  1.822294
  Thomas-Fermi vector in A             =   2.477471

 Write flags
   LWAVE        =      F    write WAVECAR
   LDOWNSAMPLE  =      F    k-point downsampling of WAVECAR
   LCHARG       =      F    write CHGCAR
   LVTOT        =      F    write LOCPOT, total local potential
   LVHAR        =      F    write LOCPOT, Hartree potential only
   LELF         =      F    write electronic localiz. function (ELF)
   LORBIT       =      0    0 simple, 1 ext, 2 COOP (PROOUT), +10 PAW based schemes


 Dipole corrections
   LMONO  =      F    monopole corrections only (constant potential shift)
   LDIPOL =      F    correct potential (dipole corrections)
   IDIPOL =      0    1-x, 2-y, 3-z, 4-all directions 
   EPSILON=  1.0000000 bulk dielectric constant

 Exchange correlation treatment:
   GGA     =    PS    GGA type
   LEXCH   =    14    internal setting for exchange type
   VOSKOWN=      0    Vosko Wilk Nusair interpolation
   LHFCALC =     F    Hartree Fock is set to
   LHFONE  =     F    Hartree Fock one center treatment
   AEXX    =    0.0000 exact exchange contribution

 Linear response parameters
   LEPSILON=     T    determine dielectric tensor
   LRPA    =     F    only Hartree local field effects (RPA)
   LNABLA  =     F    use nabla operator in PAW spheres
   LVEL    =     F    velocity operator in full k-point grid
   LINTERFAST=   F  fast interpolation
   KINTER  =     0    interpolate to denser k-point grid
   CSHIFT  =0.1000    complex shift for real part using Kramers Kronig
   OMEGAMAX=  -1.0    maximum frequency
   DEG_THRESHOLD= 0.2000000E-02 threshold for treating states as degnerate
   RTIME   =   -0.100 relaxation time in fs
  (WPLASMAI=    0.000 imaginary part of plasma frequency in eV, 0.658/RTIME)
   DFIELD  = 0.0000000 0.0000000 0.0000000 field for delta impulse in time

 Orbital magnetization related:
   ORBITALMAG=     F  switch on orbital magnetization
   LCHIMAG   =     F  perturbation theory with respect to B field
   DQ        =  0.001000  dq finite difference perturbation B field
   LLRAUG    =     F  two centre corrections for induced B field



--------------------------------------------------------------------------------------------------------


 Static calculation
 charge density and potential will be updated during run
 non-spin polarized calculation
 Variant of blocked Davidson
 Davidson routine will perform the subspace rotation
 perform sub-space diagonalisation
    after iterative eigenvector-optimisation
 modified Broyden-mixing scheme, WC =      100.0
 initial mixing is a Kerker type mixing with AMIX =  0.4000 and BMIX =      1.0000
 Hartree-type preconditioning will be used
 using additional bands           16
 reciprocal scheme for non local part
 use partial core corrections
 calculate Harris-corrections to forces   (improved forces if not selfconsistent)
 use gradient corrections 
 use of overlap-Matrix (Vanderbilt PP)
 Gauss-broadening in eV      SIGMA  =   0.01


--------------------------------------------------------------------------------------------------------


  energy-cutoff  :      500.00
  volume of cell :      256.84
      direct lattice vectors                 reciprocal lattice vectors
     4.774226345  0.000000000 -0.000000000     0.209458021  0.120930645  0.000000000
    -2.387113173  4.134601298  0.000000000    -0.000000000  0.241861289 -0.000000000
    -0.000000000  0.000000000 13.011359391     0.000000000  0.000000000  0.076855920

  length of vectors
     4.774226345  4.774226345 13.011359391     0.241861289  0.241861289  0.076855920



 k-points in units of 2pi/SCALE and weight: Regular k-point mesh                    
   0.00000000  0.00000000  0.01921398       0.028
   0.03490967  0.02015511  0.01921398       0.083
   0.06981934  0.04031021  0.01921398       0.083
   0.10472901  0.06046532  0.01921398       0.083
  -0.06981934 -0.04031021  0.01921398       0.083
  -0.03490967 -0.02015511  0.01921398       0.083
   0.03490967  0.06046532  0.01921398       0.167
   0.06981934  0.08062043  0.01921398       0.167
   0.10472901  0.10077554  0.01921398       0.167
   0.06981934  0.12093064  0.01921398       0.056

 k-points in reciprocal lattice and weights: Regular k-point mesh                    
   0.00000000  0.00000000  0.25000000       0.028
   0.16666667  0.00000000  0.25000000       0.083
   0.33333333  0.00000000  0.25000000       0.083
   0.50000000  0.00000000  0.25000000       0.083
  -0.33333333  0.00000000  0.25000000       0.083
  -0.16666667  0.00000000  0.25000000       0.083
   0.16666667  0.16666667  0.25000000       0.167
   0.33333333  0.16666667  0.25000000       0.167
   0.50000000  0.16666667  0.25000000       0.167
   0.33333333  0.33333333  0.25000000       0.056

 position of ions in fractional coordinates (direct lattice) 
   0.33333333  0.66666667  0.01876037
   0.33333333  0.66666667  0.31457296
   0.00000000  0.00000000  0.14790629
   0.66666667  0.33333333  0.18542704
   0.00000000  0.00000000  0.35209371
   0.00000000  0.00000000  0.64790629
   0.66666667  0.33333333  0.48123963
   0.33333333  0.66666667  0.51876037
   0.66666667  0.33333333  0.68542704
   0.66666667  0.33333333  0.98123963
   0.33333333  0.66666667  0.81457296
   0.00000000  0.00000000  0.85209371
   0.30580865  0.00000000  0.25000000
   0.36085801  0.33333333  0.08333333
   0.00000000  0.30580865  0.25000000
   0.66666667  0.02752468  0.08333333
   0.69419135  0.69419135  0.25000000
   0.97247532  0.63914199  0.08333333
   0.97247532  0.33333333  0.58333333
   0.02752468  0.66666667  0.41666667
   0.66666667  0.63914199  0.58333333
   0.33333333  0.36085801  0.41666667
   0.36085801  0.02752468  0.58333333
   0.63914199  0.97247532  0.41666667
   0.63914199  0.66666667  0.91666667
   0.69419135  0.00000000  0.75000000
   0.33333333  0.97247532  0.91666667
   0.00000000  0.69419135  0.75000000
   0.02752468  0.36085801  0.91666667
   0.30580865  0.30580865  0.75000000

 position of ions in cartesian coordinates  (Angst):
   0.00000000  2.75640087  0.24409798
   0.00000000  2.75640087  4.09302182
   0.00000000  0.00000000  1.92446192
   2.38711317  1.37820043  2.41265787
   0.00000000  0.00000000  4.58121777
   0.00000000  0.00000000  8.43014162
   2.38711317  1.37820043  6.26158172
   0.00000000  2.75640087  6.74977767
   2.38711317  1.37820043  8.91833757
   2.38711317  1.37820043 12.76726142
   0.00000000  2.75640087 10.59870152
   0.00000000  0.00000000 11.08689747
   1.45999973  0.00000000  3.25283985
   0.92711344  1.37820043  1.08427995
  -0.72999987  1.26439686  3.25283985
   3.11711304  0.11380358  1.08427995
   1.65711331  2.87020444  3.25283985
   3.11711304  2.64259729  1.08427995
   3.84711290  1.37820043  7.58995964
  -1.45999973  2.75640087  5.42139975
   1.65711331  2.64259729  7.58995964
   0.72999987  1.49200401  5.42139975
   1.65711331  0.11380358  7.58995964
   0.72999987  4.02079772  5.42139975
   1.45999973  2.75640087 11.92707944
   3.31422661  0.00000000  9.75851954
  -0.72999987  4.02079772 11.92707944
  -1.65711331  2.87020444  9.75851954
  -0.72999987  1.49200401 11.92707944
   0.72999987  1.26439686  9.75851954



--------------------------------------------------------------------------------------------------------


 k-point  1 :   0.0000 0.0000 0.2500  plane waves:    6521
 k-point  2 :   0.1667 0.0000 0.2500  plane waves:    6531
 k-point  3 :   0.3333 0.0000 0.2500  plane waves:    6518
 k-point  4 :   0.5000 0.0000 0.2500  plane waves:    6524
 k-point  5 :  -0.3333 0.0000 0.2500  plane waves:    6518
 k-point  6 :  -0.1667 0.0000 0.2500  plane waves:    6531
 k-point  7 :   0.1667 0.1667 0.2500  plane waves:    6523
 k-point  8 :   0.3333 0.1667 0.2500  plane waves:    6514
 k-point  9 :   0.5000 0.1667 0.2500  plane waves:    6514
 k-point 10 :   0.3333 0.3333 0.2500  plane waves:    6489

 maximum and minimum number of plane-waves per node :      6531     6489

 maximum number of plane-waves:      6531
 maximum index in each direction: 
   IXMAX=    9   IYMAX=    8   IZMAX=   23
   IXMIN=   -9   IYMIN=   -9   IZMIN=  -23


 serial   3D FFT for wavefunctions
 parallel 3D FFT for charge:
    minimum data exchange during FFTs selected (reduces bandwidth)


 total amount of memory used by VASP MPI-rank0    84274. kBytes
=======================================================================

   base      :      30000. kBytes
   nonl-proj :      11503. kBytes
   fftplans  :      18738. kBytes
   grid      :      12016. kBytes
   one-center:         92. kBytes
   wavefun   :      11925. kBytes

     INWAV:  cpu time    0.0000: real time    0.0000
 Broyden mixing: mesh for mixing (old mesh)
   NGX = 17   NGY = 17   NGZ = 47
  (NGX  = 72   NGY  = 72   NGZ  =192)
  gives a total of  13583 points

 initial charge density was supplied:
 charge density of overlapping atoms calculated
 number of electron     144.0000000 magnetization 
 keeping initial charge density in first step


--------------------------------------------------------------------------------------------------------


 Maximum index for augmentation-charges        18407 (set IRDMAX)


--------------------------------------------------------------------------------------------------------


 First call to EWALD:  gamma=   0.279
 Maximum number of real-space cells 4x 4x 2
 Maximum number of reciprocal cells 2x 2x 5

    FEWALD:  cpu time    0.0013: real time    0.0014


--------------------------------------- Iteration      1(   1)  ---------------------------------------


    POTLOK:  cpu time    0.0841: real time    0.0850
    SETDIJ:  cpu time    0.1297: real time    0.1315
     EDDAV:  cpu time    4.0698: real time    4.1135
       DOS:  cpu time    0.0003: real time    0.0003
    --------------------------------------------
      LOOP:  cpu time    4.2839: real time    4.3303

 eigenvalue-minimisations  :  1768
 total energy-change (2. order) : 0.7751649E+03  (-0.7556884E+04)
 number of electron     144.0000000 magnetization 
 augmentation part      144.0000000 magnetization 

 Free energy of the ion-electron system (eV)
  ---------------------------------------------------
  alpha Z        PSCENC =       226.18789195
  Ewald energy   TEWEN  =     -7174.10772037
  -Hartree energ DENC   =     -1903.03655297
  -exchange      EXHF   =         0.00000000
  -V(xc)+E(xc)   XCENC  =       215.96381375
  PAW double counting   =      7015.85257893    -6664.70554900
  entropy T*S    EENTRO =        -0.00085753
  eigenvalues    EBANDS =       669.60832067
  atomic energy  EATOM  =      8389.40297635
  Solvation  Ediel_sol  =         0.00000000
  ---------------------------------------------------
  free energy    TOTEN  =       775.16490178 eV

  energy without entropy =      775.16575930  energy(sigma->0) =      775.16533054


--------------------------------------------------------------------------------------------------------




--------------------------------------- Iteration      1(   2)  ---------------------------------------


     EDDAV:  cpu time    4.8250: real time    4.8660
       DOS:  cpu time    0.0002: real time    0.0002
    --------------------------------------------
      LOOP:  cpu time    4.8251: real time    4.8662

 eigenvalue-minimisations  :  2176
 total energy-change (2. order) :-0.9845940E+03  (-0.9582647E+03)
 number of electron     144.0000000 magnetization 
 augmentation part      144.0000000 magnetization 

 Free energy of the ion-electron system (eV)
  ---------------------------------------------------
  alpha Z        PSCENC =       226.18789195
  Ewald energy   TEWEN  =     -7174.10772037
  -Hartree energ DENC   =     -1903.03655297
  -exchange      EXHF   =         0.00000000
  -V(xc)+E(xc)   XCENC  =       215.96381375
  PAW double counting   =      7015.85257893    -6664.70554900
  entropy T*S    EENTRO =        -0.00000000
  eigenvalues    EBANDS =      -314.98653057
  atomic energy  EATOM  =      8389.40297635
  Solvation  Ediel_sol  =         0.00000000
  ---------------------------------------------------
  free energy    TOTEN  =      -209.42909194 eV

  energy without entropy =     -209.42909194  energy(sigma->0) =     -209.42909194


--------------------------------------------------------------------------------------------------------




--------------------------------------- Iteration      1(   3)  ---------------------------------------


     EDDAV:  cpu time    4.6601: real time    4.7104
       DOS:  cpu time    0.0002: real time    0.0002
    --------------------------------------------
      LOOP:  cpu time    4.6603: real time    4.7106

 eigenvalue-minimisations  :  2080
 total energy-change (2. order) :-0.4775364E+02  (-0.4757843E+02)
 number of electron     144.0000000 magnetization 
 augmentation part      144.0000000 magnetization 

 Free energy of the ion-electron system (eV)
  ---------------------------------------------------
  alpha Z        PSCENC =       226.18789195
  Ewald energy   TEWEN  =     -7174.10772037
  -Hartree energ DENC   =     -1903.03655297
  -exchange      EXHF   =         0.00000000
  -V(xc)+E(xc)   XCENC  =       215.96381375
  PAW double counting   =      7015.85257893    -6664.70554900
  entropy T*S    EENTRO =        -0.00000000
  eigenvalues    EBANDS =      -362.74017218
  atomic energy  EATOM  =      8389.40297635
  Solvation  Ediel_sol  =         0.00000000
  ---------------------------------------------------
  free energy    TOTEN  =      -257.18273355 eV

  energy without entropy =     -257.18273355  energy(sigma->0) =     -257.18273355


--------------------------------------------------------------------------------------------------------




--------------------------------------- Iteration      1(   4)  ---------------------------------------


     EDDAV:  cpu time    4.5820: real time    4.6257
       DOS:  cpu time    0.0002: real time    0.0002
    --------------------------------------------
      LOOP:  cpu time    4.5822: real time    4.6259

 eigenvalue-minimisations  :  2072
 total energy-change (2. order) :-0.5281271E+00  (-0.5268166E+00)
 number of electron     144.0000000 magnetization 
 augmentation part      144.0000000 magnetization 

 Free energy of the ion-electron system (eV)
  ---------------------------------------------------
  alpha Z        PSCENC =       226.18789195
  Ewald energy   TEWEN  =     -7174.10772037
  -Hartree energ DENC   =     -1903.03655297
  -exchange      EXHF   =         0.00000000
  -V(xc)+E(xc)   XCENC  =       215.96381375
  PAW double counting   =      7015.85257893    -6664.70554900
  entropy T*S    EENTRO =        -0.00000000
  eigenvalues    EBANDS =      -363.26829927
  atomic energy  EATOM  =      8389.40297635
  Solvation  Ediel_sol  =         0.00000000
  ---------------------------------------------------
  free energy    TOTEN  =      -257.71086063 eV

  energy without entropy =     -257.71086063  energy(sigma->0) =     -257.71086063


--------------------------------------------------------------------------------------------------------




--------------------------------------- Iteration      1(   5)  ---------------------------------------


     EDDAV:  cpu time    4.5768: real time    4.6197
       DOS:  cpu time    0.0002: real time    0.0002
    CHARGE:  cpu time    0.3765: real time    0.3790
    MIXING:  cpu time    0.0052: real time    0.0052
    --------------------------------------------
      LOOP:  cpu time    4.9587: real time    5.0042

 eigenvalue-minimisations  :  2064
 total energy-change (2. order) :-0.8988448E-02  (-0.8978773E-02)
 number of electron     144.0000005 magnetization 
 augmentation part       13.9373658 magnetization 

 Broyden mixing:
  rms(total) = 0.28515E+01    rms(broyden)= 0.28506E+01
  rms(prec ) = 0.33902E+01
  weight for this iteration     100.00

 Free energy of the ion-electron system (eV)
  ---------------------------------------------------
  alpha Z        PSCENC =       226.18789195
  Ewald energy   TEWEN  =     -7174.10772037
  -Hartree energ DENC   =     -1903.03655297
  -exchange      EXHF   =         0.00000000
  -V(xc)+E(xc)   XCENC  =       215.96381375
  PAW double counting   =      7015.85257893    -6664.70554900
  entropy T*S    EENTRO =        -0.00000000
  eigenvalues    EBANDS =      -363.27728772
  atomic energy  EATOM  =      8389.40297635
  Solvation  Ediel_sol  =         0.00000000
  ---------------------------------------------------
  free energy    TOTEN  =      -257.71984908 eV

  energy without entropy =     -257.71984908  energy(sigma->0) =     -257.71984908


--------------------------------------------------------------------------------------------------------




--------------------------------------- Iteration      1(   6)  ---------------------------------------


    POTLOK:  cpu time    0.0764: real time    0.0768
    SETDIJ:  cpu time    0.1319: real time    0.1342
     EDDAV:  cpu time    4.4870: real time    4.5315
       DOS:  cpu time    0.0002: real time    0.0002
    CHARGE:  cpu time    0.3650: real time    0.3695
    MIXING:  cpu time    0.0042: real time    0.0042
    --------------------------------------------
      LOOP:  cpu time    5.0647: real time    5.1165

 eigenvalue-minimisations  :  1992
 total energy-change (2. order) : 0.2149098E+02  (-0.9555635E+01)
 number of electron     144.0000004 magnetization 
 augmentation part       11.8680666 magnetization 

 Broyden mixing:
  rms(total) = 0.10416E+01    rms(broyden)= 0.10405E+01
  rms(prec ) = 0.11036E+01
  weight for this iteration     100.00

 eigenvalues of (default mixing * dielectric matrix)
  average eigenvalue GAMMA=   0.9545
  0.9545

 Free energy of the ion-electron system (eV)
  ---------------------------------------------------
  alpha Z        PSCENC =       226.18789195
  Ewald energy   TEWEN  =     -7174.10772037
  -Hartree energ DENC   =     -2167.03708588
  -exchange      EXHF   =         0.00000000
  -V(xc)+E(xc)   XCENC  =       235.28315966
  PAW double counting   =      9043.58042270    -8698.11315718
  entropy T*S    EENTRO =        -0.00000000
  eigenvalues    EBANDS =       -91.42535180
  atomic energy  EATOM  =      8389.40297635
  Solvation  Ediel_sol  =         0.00000000
  ---------------------------------------------------
  free energy    TOTEN  =      -236.22886457 eV

  energy without entropy =     -236.22886457  energy(sigma->0) =     -236.22886457


--------------------------------------------------------------------------------------------------------




--------------------------------------- Iteration      1(   7)  ---------------------------------------


    POTLOK:  cpu time    0.0757: real time    0.0767
    SETDIJ:  cpu time    0.1310: real time    0.1330
     EDDAV:  cpu time    4.6154: real time    4.6603
       DOS:  cpu time    0.0002: real time    0.0002
    CHARGE:  cpu time    0.3637: real time    0.3686
    MIXING:  cpu time    0.0042: real time    0.0043
    --------------------------------------------
      LOOP:  cpu time    5.1902: real time    5.2431

 eigenvalue-minimisations  :  2104
 total energy-change (2. order) : 0.1421818E+00  (-0.1818599E+00)
 number of electron     144.0000004 magnetization 
 augmentation part       11.7674457 magnetization 

 Broyden mixing:
  rms(total) = 0.56664E+00    rms(broyden)= 0.56658E+00
  rms(prec ) = 0.60763E+00
  weight for this iteration     100.00

 eigenvalues of (default mixing * dielectric matrix)
  average eigenvalue GAMMA=   1.3433
  1.1460  1.5406

 Free energy of the ion-electron system (eV)
  ---------------------------------------------------
  alpha Z        PSCENC =       226.18789195
  Ewald energy   TEWEN  =     -7174.10772037
  -Hartree energ DENC   =     -2187.70272768
  -exchange      EXHF   =         0.00000000
  -V(xc)+E(xc)   XCENC  =       237.10861464
  PAW double counting   =     10583.07483543   -10237.60674126
  entropy T*S    EENTRO =        -0.00000000
  eigenvalues    EBANDS =       -72.44381187
  atomic energy  EATOM  =      8389.40297635
  Solvation  Ediel_sol  =         0.00000000
  ---------------------------------------------------
  free energy    TOTEN  =      -236.08668281 eV

  energy without entropy =     -236.08668281  energy(sigma->0) =     -236.08668281


--------------------------------------------------------------------------------------------------------




--------------------------------------- Iteration      1(   8)  ---------------------------------------


    POTLOK:  cpu time    0.0758: real time    0.0764
    SETDIJ:  cpu time    0.1311: real time    0.1330
     EDDAV:  cpu time    4.5168: real time    4.5655
       DOS:  cpu time    0.0002: real time    0.0002
    CHARGE:  cpu time    0.3656: real time    0.3687
    MIXING:  cpu time    0.0048: real time    0.0048
    --------------------------------------------
      LOOP:  cpu time    5.0943: real time    5.1487

 eigenvalue-minimisations  :  2048
 total energy-change (2. order) : 0.9623677E-01  (-0.1261093E-01)
 number of electron     144.0000004 magnetization 
 augmentation part       11.7926734 magnetization 

 Broyden mixing:
  rms(total) = 0.15830E+00    rms(broyden)= 0.15830E+00
  rms(prec ) = 0.17510E+00
  weight for this iteration     100.00

 eigenvalues of (default mixing * dielectric matrix)
  average eigenvalue GAMMA=   1.5667
  2.5213  1.0894  1.0894

 Free energy of the ion-electron system (eV)
  ---------------------------------------------------
  alpha Z        PSCENC =       226.18789195
  Ewald energy   TEWEN  =     -7174.10772037
  -Hartree energ DENC   =     -2196.15277536
  -exchange      EXHF   =         0.00000000
  -V(xc)+E(xc)   XCENC  =       238.18403744
  PAW double counting   =     11926.02945320   -11580.59439125
  entropy T*S    EENTRO =        -0.00000000
  eigenvalues    EBANDS =       -64.93991801
  atomic energy  EATOM  =      8389.40297635
  Solvation  Ediel_sol  =         0.00000000
  ---------------------------------------------------
  free energy    TOTEN  =      -235.99044604 eV

  energy without entropy =     -235.99044604  energy(sigma->0) =     -235.99044604


--------------------------------------------------------------------------------------------------------




--------------------------------------- Iteration      1(   9)  ---------------------------------------


    POTLOK:  cpu time    0.0762: real time    0.0766
    SETDIJ:  cpu time    0.1319: real time    0.1329
     EDDAV:  cpu time    4.5683: real time    4.5919
       DOS:  cpu time    0.0002: real time    0.0002
    CHARGE:  cpu time    0.3632: real time    0.3662
    MIXING:  cpu time    0.0039: real time    0.0039
    --------------------------------------------
      LOOP:  cpu time    5.1436: real time    5.1717

 eigenvalue-minimisations  :  2064
 total energy-change (2. order) : 0.6126591E-03  (-0.3646625E-02)
 number of electron     144.0000004 magnetization 
 augmentation part       11.7684080 magnetization 

 Broyden mixing:
  rms(total) = 0.45643E-01    rms(broyden)= 0.45642E-01
  rms(prec ) = 0.46101E-01
  weight for this iteration     100.00

 eigenvalues of (default mixing * dielectric matrix)
  average eigenvalue GAMMA=   1.7861
  1.0226  1.0226  2.5497  2.5497

 Free energy of the ion-electron system (eV)
  ---------------------------------------------------
  alpha Z        PSCENC =       226.18789195
  Ewald energy   TEWEN  =     -7174.10772037
  -Hartree energ DENC   =     -2206.02319574
  -exchange      EXHF   =         0.00000000
  -V(xc)+E(xc)   XCENC  =       239.15932813
  PAW double counting   =     12452.22307501   -12106.92016700
  entropy T*S    EENTRO =        -0.00000000
  eigenvalues    EBANDS =       -55.91202170
  atomic energy  EATOM  =      8389.40297635
  Solvation  Ediel_sol  =         0.00000000
  ---------------------------------------------------
  free energy    TOTEN  =      -235.98983338 eV

  energy without entropy =     -235.98983338  energy(sigma->0) =     -235.98983338


--------------------------------------------------------------------------------------------------------




--------------------------------------- Iteration      1(  10)  ---------------------------------------


    POTLOK:  cpu time    0.0758: real time    0.0766
    SETDIJ:  cpu time    0.1313: real time    0.1332
     EDDAV:  cpu time    4.5981: real time    4.6232
       DOS:  cpu time    0.0002: real time    0.0003
    CHARGE:  cpu time    0.3673: real time    0.3699
    MIXING:  cpu time    0.0038: real time    0.0038
    --------------------------------------------
      LOOP:  cpu time    5.1766: real time    5.2070

 eigenvalue-minimisations  :  2064
 total energy-change (2. order) :-0.1150928E-02  (-0.2151160E-03)
 number of electron     144.0000004 magnetization 
 augmentation part       11.7626509 magnetization 

 Broyden mixing:
  rms(total) = 0.10532E-01    rms(broyden)= 0.10528E-01
  rms(prec ) = 0.11667E-01
  weight for this iteration     100.00

 eigenvalues of (default mixing * dielectric matrix)
  average eigenvalue GAMMA=   1.6805
  2.7585  2.3681  1.0848  1.0848  1.1065

 Free energy of the ion-electron system (eV)
  ---------------------------------------------------
  alpha Z        PSCENC =       226.18789195
  Ewald energy   TEWEN  =     -7174.10772037
  -Hartree energ DENC   =     -2206.80260239
  -exchange      EXHF   =         0.00000000
  -V(xc)+E(xc)   XCENC  =       239.23886147
  PAW double counting   =     12256.93954002   -11911.65378013
  entropy T*S    EENTRO =        -0.00000000
  eigenvalues    EBANDS =       -55.19615121
  atomic energy  EATOM  =      8389.40297635
  Solvation  Ediel_sol  =         0.00000000
  ---------------------------------------------------
  free energy    TOTEN  =      -235.99098431 eV

  energy without entropy =     -235.99098431  energy(sigma->0) =     -235.99098431


--------------------------------------------------------------------------------------------------------




--------------------------------------- Iteration      1(  11)  ---------------------------------------


    POTLOK:  cpu time    0.0769: real time    0.0775
    SETDIJ:  cpu time    0.1327: real time    0.1339
     EDDAV:  cpu time    4.5783: real time    4.6094
       DOS:  cpu time    0.0002: real time    0.0002
    CHARGE:  cpu time    0.3618: real time    0.3644
    MIXING:  cpu time    0.0052: real time    0.0052
    --------------------------------------------
      LOOP:  cpu time    5.1551: real time    5.1905

 eigenvalue-minimisations  :  2064
 total energy-change (2. order) : 0.1459400E-03  (-0.1078528E-03)
 number of electron     144.0000004 magnetization 
 augmentation part       11.7693132 magnetization 

 Broyden mixing:
  rms(total) = 0.40194E-02    rms(broyden)= 0.40160E-02
  rms(prec ) = 0.40913E-02
  weight for this iteration     100.00

 eigenvalues of (default mixing * dielectric matrix)
  average eigenvalue GAMMA=   1.6331
  2.8060  2.4343  0.9759  1.1328  1.1328  1.3168

 Free energy of the ion-electron system (eV)
  ---------------------------------------------------
  alpha Z        PSCENC =       226.18789195
  Ewald energy   TEWEN  =     -7174.10772037
  -Hartree energ DENC   =     -2206.06467729
  -exchange      EXHF   =         0.00000000
  -V(xc)+E(xc)   XCENC  =       239.18813699
  PAW double counting   =     12247.29002170   -11901.98480389
  entropy T*S    EENTRO =        -0.00000000
  eigenvalues    EBANDS =       -55.90266380
  atomic energy  EATOM  =      8389.40297635
  Solvation  Ediel_sol  =         0.00000000
  ---------------------------------------------------
  free energy    TOTEN  =      -235.99083837 eV

  energy without entropy =     -235.99083837  energy(sigma->0) =     -235.99083837


--------------------------------------------------------------------------------------------------------




--------------------------------------- Iteration      1(  12)  ---------------------------------------


    POTLOK:  cpu time    0.0757: real time    0.0761
    SETDIJ:  cpu time    0.1315: real time    0.1336
     EDDAV:  cpu time    4.5564: real time    4.5894
       DOS:  cpu time    0.0002: real time    0.0002
    CHARGE:  cpu time    0.3618: real time    0.3644
    MIXING:  cpu time    0.0057: real time    0.0058
    --------------------------------------------
      LOOP:  cpu time    5.1313: real time    5.1695

 eigenvalue-minimisations  :  2064
 total energy-change (2. order) : 0.8174757E-06  (-0.3617876E-05)
 number of electron     144.0000004 magnetization 
 augmentation part       11.7682370 magnetization 

 Broyden mixing:
  rms(total) = 0.14144E-02    rms(broyden)= 0.14143E-02
  rms(prec ) = 0.14426E-02
  weight for this iteration     100.00

 eigenvalues of (default mixing * dielectric matrix)
  average eigenvalue GAMMA=   1.6577
  2.9165  2.5115  2.0694  1.0659  1.0659  0.9639  1.0108

 Free energy of the ion-electron system (eV)
  ---------------------------------------------------
  alpha Z        PSCENC =       226.18789195
  Ewald energy   TEWEN  =     -7174.10772037
  -Hartree energ DENC   =     -2206.20943283
  -exchange      EXHF   =         0.00000000
  -V(xc)+E(xc)   XCENC  =       239.19736538
  PAW double counting   =     12235.91228416   -11890.61015719
  entropy T*S    EENTRO =        -0.00000000
  eigenvalues    EBANDS =       -55.76404500
  atomic energy  EATOM  =      8389.40297635
  Solvation  Ediel_sol  =         0.00000000
  ---------------------------------------------------
  free energy    TOTEN  =      -235.99083755 eV

  energy without entropy =     -235.99083755  energy(sigma->0) =     -235.99083755


--------------------------------------------------------------------------------------------------------




--------------------------------------- Iteration      1(  13)  ---------------------------------------


    POTLOK:  cpu time    0.0757: real time    0.0761
    SETDIJ:  cpu time    0.1315: real time    0.1325
     EDDAV:  cpu time    4.6902: real time    4.7114
       DOS:  cpu time    0.0002: real time    0.0002
    CHARGE:  cpu time    0.3620: real time    0.3649
    MIXING:  cpu time    0.0047: real time    0.0047
    --------------------------------------------
      LOOP:  cpu time    5.2643: real time    5.2899

 eigenvalue-minimisations  :  2128
 total energy-change (2. order) : 0.4207086E-06  (-0.2088196E-06)
 number of electron     144.0000004 magnetization 
 augmentation part       11.7684062 magnetization 

 Broyden mixing:
  rms(total) = 0.22755E-03    rms(broyden)= 0.22744E-03
  rms(prec ) = 0.24423E-03
  weight for this iteration     100.00

 eigenvalues of (default mixing * dielectric matrix)
  average eigenvalue GAMMA=   1.6724
  2.7663  2.4776  2.4776  1.4751  0.9193  1.0812  1.0812  1.1012

 Free energy of the ion-electron system (eV)
  ---------------------------------------------------
  alpha Z        PSCENC =       226.18789195
  Ewald energy   TEWEN  =     -7174.10772037
  -Hartree energ DENC   =     -2206.19408844
  -exchange      EXHF   =         0.00000000
  -V(xc)+E(xc)   XCENC  =       239.19540756
  PAW double counting   =     12230.70011615   -11885.39651929
  entropy T*S    EENTRO =        -0.00000000
  eigenvalues    EBANDS =       -55.77890104
  atomic energy  EATOM  =      8389.40297635
  Solvation  Ediel_sol  =         0.00000000
  ---------------------------------------------------
  free energy    TOTEN  =      -235.99083713 eV

  energy without entropy =     -235.99083713  energy(sigma->0) =     -235.99083713


--------------------------------------------------------------------------------------------------------




--------------------------------------- Iteration      1(  14)  ---------------------------------------


    POTLOK:  cpu time    0.0764: real time    0.0768
    SETDIJ:  cpu time    0.1333: real time    0.1343
     EDDAV:  cpu time    4.6068: real time    4.6555
       DOS:  cpu time    0.0002: real time    0.0002
    CHARGE:  cpu time    0.3751: real time    0.3805
    MIXING:  cpu time    0.0065: real time    0.0066
    --------------------------------------------
      LOOP:  cpu time    5.1984: real time    5.2539

 eigenvalue-minimisations  :  2080
 total energy-change (2. order) : 0.3097048E-06  (-0.8535880E-07)
 number of electron     144.0000004 magnetization 
 augmentation part       11.7685779 magnetization 

 Broyden mixing:
  rms(total) = 0.20023E-03    rms(broyden)= 0.20009E-03
  rms(prec ) = 0.21259E-03
  weight for this iteration     100.00

 eigenvalues of (default mixing * dielectric matrix)
  average eigenvalue GAMMA=   1.6848
  3.0471  2.6621  2.4845  1.6968  1.3230  1.0490  1.0490  0.9257  0.9257

 Free energy of the ion-electron system (eV)
  ---------------------------------------------------
  alpha Z        PSCENC =       226.18789195
  Ewald energy   TEWEN  =     -7174.10772037
  -Hartree energ DENC   =     -2206.17480847
  -exchange      EXHF   =         0.00000000
  -V(xc)+E(xc)   XCENC  =       239.19378903
  PAW double counting   =     12231.40905156   -11886.10465864
  entropy T*S    EENTRO =        -0.00000000
  eigenvalues    EBANDS =       -55.79735823
  atomic energy  EATOM  =      8389.40297635
  Solvation  Ediel_sol  =         0.00000000
  ---------------------------------------------------
  free energy    TOTEN  =      -235.99083682 eV

  energy without entropy =     -235.99083682  energy(sigma->0) =     -235.99083682


--------------------------------------------------------------------------------------------------------




--------------------------------------- Iteration      1(  15)  ---------------------------------------


    POTLOK:  cpu time    0.0909: real time    0.0918
    SETDIJ:  cpu time    0.1351: real time    0.1377
     EDDAV:  cpu time    4.5789: real time    4.6217
       DOS:  cpu time    0.0003: real time    0.0003
    CHARGE:  cpu time    0.3651: real time    0.3676
    MIXING:  cpu time    0.0060: real time    0.0060
    --------------------------------------------
      LOOP:  cpu time    5.1762: real time    5.2251

 eigenvalue-minimisations  :  2056
 total energy-change (2. order) : 0.3544483E-07  (-0.1406500E-07)
 number of electron     144.0000004 magnetization 
 augmentation part       11.7685098 magnetization 

 Broyden mixing:
  rms(total) = 0.64278E-04    rms(broyden)= 0.64088E-04
  rms(prec ) = 0.65093E-04
  weight for this iteration     100.00

 eigenvalues of (default mixing * dielectric matrix)
  average eigenvalue GAMMA=   1.6197
  2.9243  2.7358  2.4224  1.7697  1.3270  1.0511  1.0511  1.0550  0.9587  0.9018

 Free energy of the ion-electron system (eV)
  ---------------------------------------------------
  alpha Z        PSCENC =       226.18789195
  Ewald energy   TEWEN  =     -7174.10772037
  -Hartree energ DENC   =     -2206.18433504
  -exchange      EXHF   =         0.00000000
  -V(xc)+E(xc)   XCENC  =       239.19438720
  PAW double counting   =     12230.74977757   -11885.44541047
  entropy T*S    EENTRO =        -0.00000000
  eigenvalues    EBANDS =       -55.78840396
  atomic energy  EATOM  =      8389.40297635
  Solvation  Ediel_sol  =         0.00000000
  ---------------------------------------------------
  free energy    TOTEN  =      -235.99083678 eV

  energy without entropy =     -235.99083678  energy(sigma->0) =     -235.99083678


--------------------------------------------------------------------------------------------------------




--------------------------------------- Iteration      1(  16)  ---------------------------------------


    POTLOK:  cpu time    0.0761: real time    0.0765
    SETDIJ:  cpu time    0.1323: real time    0.1332
     EDDAV:  cpu time    3.4012: real time    3.4198
       DOS:  cpu time    0.0002: real time    0.0003
    CHARGE:  cpu time    0.3699: real time    0.3724
    MIXING:  cpu time    0.0056: real time    0.0057
    --------------------------------------------
      LOOP:  cpu time    3.9852: real time    4.0079

 eigenvalue-minimisations  :  1320
 total energy-change (2. order) :-0.4640970E-07  (-0.3769526E-09)
 number of electron     144.0000004 magnetization 
 augmentation part       11.7685053 magnetization 

 Broyden mixing:
  rms(total) = 0.28763E-04    rms(broyden)= 0.28358E-04
  rms(prec ) = 0.28924E-04
  weight for this iteration     100.00

 eigenvalues of (default mixing * dielectric matrix)
  average eigenvalue GAMMA=   1.7024
  2.8752  2.8752  2.6019  2.3037  1.7747  1.3765  1.0618  1.0618  0.9778  0.9089
  0.9089

 Free energy of the ion-electron system (eV)
  ---------------------------------------------------
  alpha Z        PSCENC =       226.18789195
  Ewald energy   TEWEN  =     -7174.10772037
  -Hartree energ DENC   =     -2206.18468500
  -exchange      EXHF   =         0.00000000
  -V(xc)+E(xc)   XCENC  =       239.19441077
  PAW double counting   =     12230.84795747   -11885.54359204
  entropy T*S    EENTRO =        -0.00000000
  eigenvalues    EBANDS =       -55.78807596
  atomic energy  EATOM  =      8389.40297635
  Solvation  Ediel_sol  =         0.00000000
  ---------------------------------------------------
  free energy    TOTEN  =      -235.99083683 eV

  energy without entropy =     -235.99083683  energy(sigma->0) =     -235.99083683


--------------------------------------------------------------------------------------------------------




--------------------------------------- Iteration      1(  17)  ---------------------------------------


    POTLOK:  cpu time    0.0751: real time    0.0760
    SETDIJ:  cpu time    0.1314: real time    0.1333
     EDDAV:  cpu time    3.2166: real time    3.2551
       DOS:  cpu time    0.0002: real time    0.0002
    CHARGE:  cpu time    0.3707: real time    0.3761
    MIXING:  cpu time    0.0046: real time    0.0046
    --------------------------------------------
      LOOP:  cpu time    3.7986: real time    3.8454

 eigenvalue-minimisations  :  1208
 total energy-change (2. order) :-0.2282468E-07  (-0.2008348E-09)
 number of electron     144.0000004 magnetization 
 augmentation part       11.7684974 magnetization 

 Broyden mixing:
  rms(total) = 0.51423E-05    rms(broyden)= 0.18440E-05
  rms(prec ) = 0.20825E-05
  weight for this iteration     100.00
  WARNING: grid for Broyden might be to small

 eigenvalues of (default mixing * dielectric matrix)
  average eigenvalue GAMMA=   1.6372
  3.0311  2.7068  2.4595  2.4595  1.7827  1.3437  1.0570  1.0570  0.9801  0.9801
  0.9340  0.8551

 Free energy of the ion-electron system (eV)
  ---------------------------------------------------
  alpha Z        PSCENC =       226.18789195
  Ewald energy   TEWEN  =     -7174.10772037
  -Hartree energ DENC   =     -2206.18566383
  -exchange      EXHF   =         0.00000000
  -V(xc)+E(xc)   XCENC  =       239.19448716
  PAW double counting   =     12230.96574099   -11885.66137651
  entropy T*S    EENTRO =        -0.00000000
  eigenvalues    EBANDS =       -55.78717259
  atomic energy  EATOM  =      8389.40297635
  Solvation  Ediel_sol  =         0.00000000
  ---------------------------------------------------
  free energy    TOTEN  =      -235.99083685 eV

  energy without entropy =     -235.99083685  energy(sigma->0) =     -235.99083685


--------------------------------------------------------------------------------------------------------




--------------------------------------- Iteration      1(  18)  ---------------------------------------


    POTLOK:  cpu time    0.0754: real time    0.0764
    SETDIJ:  cpu time    0.1314: real time    0.1333
     EDDAV:  cpu time    3.1217: real time    3.1562
       DOS:  cpu time    0.0002: real time    0.0002
    --------------------------------------------
      LOOP:  cpu time    3.3286: real time    3.3661

 eigenvalue-minimisations  :  1152
 total energy-change (2. order) :-0.1686203E-08  (-0.1599946E-10)
 number of electron     144.0000004 magnetization 
 augmentation part       11.7684974 magnetization 

 Free energy of the ion-electron system (eV)
  ---------------------------------------------------
  alpha Z        PSCENC =       226.18789195
  Ewald energy   TEWEN  =     -7174.10772037
  -Hartree energ DENC   =     -2206.18559984
  -exchange      EXHF   =         0.00000000
  -V(xc)+E(xc)   XCENC  =       239.19448334
  PAW double counting   =     12230.96216306   -11885.65780024
  entropy T*S    EENTRO =        -0.00000000
  eigenvalues    EBANDS =       -55.78723110
  atomic energy  EATOM  =      8389.40297635
  Solvation  Ediel_sol  =         0.00000000
  ---------------------------------------------------
  free energy    TOTEN  =      -235.99083685 eV

  energy without entropy =     -235.99083685  energy(sigma->0) =     -235.99083685


--------------------------------------------------------------------------------------------------------




 average (electrostatic) potential at core
  the test charge radii are     1.0406  0.7215
  (the norm of the test charge is              1.0000)
       1 -71.2182       2 -71.2182       3 -71.2182       4 -71.2182       5 -71.2182
       6 -71.2182       7 -71.2182       8 -71.2182       9 -71.2182      10 -71.2182
      11 -71.2182      12 -71.2182      13 -67.0965      14 -67.0965      15 -67.0965
      16 -67.0965      17 -67.0965      18 -67.0965      19 -67.0965      20 -67.0965
      21 -67.0965      22 -67.0965      23 -67.0965      24 -67.0965      25 -67.0965
      26 -67.0965      27 -67.0965      28 -67.0965      29 -67.0965      30 -67.0965



 E-fermi :   6.0116     XC(G=0): -11.9066     alpha+bet :-16.7165


 k-point     1 :       0.0000    0.0000    0.2500
  band No.  band energies     occupation 
      1     -13.1687      2.00000
      2     -12.9282      2.00000
      3     -12.4778      2.00000
      4     -11.8884      2.00000
      5     -11.2937      2.00000
      6     -10.8985      2.00000
      7     -10.5594      2.00000
      8     -10.5594      2.00000
      9     -10.5264      2.00000
     10     -10.5264      2.00000
     11     -10.4624      2.00000
     12     -10.4624      2.00000
     13     -10.3782      2.00000
     14     -10.3782      2.00000
     15     -10.2965      2.00000
     16     -10.2965      2.00000
     17     -10.2459      2.00000
     18     -10.2459      2.00000
     19      -0.8779      2.00000
     20      -0.1615      2.00000
     21       0.0079      2.00000
     22       0.0805      2.00000
     23       0.1766      2.00000
     24       0.4003      2.00000
     25       0.4003      2.00000
     26       0.5061      2.00000
     27       0.6297      2.00000
     28       0.6297      2.00000
     29       0.9748      2.00000
     30       1.1438      2.00000
     31       1.1438      2.00000
     32       1.1572      2.00000
     33       1.4137      2.00000
     34       1.6469      2.00000
     35       1.6469      2.00000
     36       1.8233      2.00000
     37       1.8233      2.00000
     38       1.9889      2.00000
     39       1.9889      2.00000
     40       2.5201      2.00000
     41       2.6689      2.00000
     42       2.9904      2.00000
     43       3.0517      2.00000
     44       3.1569      2.00000
     45       3.4591      2.00000
     46       3.5968      2.00000
     47       3.5968      2.00000
     48       3.6044      2.00000
     49       3.6044      2.00000
     50       3.9458      2.00000
     51       4.3038      2.00000
     52       4.3038      2.00000
     53       4.3109      2.00000
     54       4.3109      2.00000
     55       4.7672      2.00000
     56       4.7672      2.00000
     57       4.7703      2.00000
     58       4.7703      2.00000
     59       4.8318      2.00000
     60       5.4482      2.00000
     61       5.4482      2.00000
     62       5.4664      2.00000
     63       5.4664      2.00000
     64       5.4975      2.00000
     65       5.4975      2.00000
     66       5.6701      2.00000
     67       5.6701      2.00000
     68       5.7978      2.00000
     69       5.8433      2.00000
     70       5.8433      2.00000
     71       5.9096      2.00000
     72       5.9096      2.00000
     73      12.1271      0.00000
     74      12.9760      0.00000
     75      14.0086      0.00000
     76      14.7254      0.00000
     77      14.8711      0.00000
     78      14.9232      0.00000
     79      16.3725      0.00000
     80      16.5028      0.00000
     81      16.5984      0.00000
     82      17.1133      0.00000
     83      17.3242      0.00000
     84      17.3242      0.00000
     85      17.3637      0.00000
     86      17.3991      0.00000
     87      17.6409      0.00000
     88      17.6409      0.00000

 k-point     2 :       0.1667    0.0000    0.2500
  band No.  band energies     occupation 
      1     -13.0389      2.00000
      2     -12.8057      2.00000
      3     -12.3662      2.00000
      4     -11.8067      2.00000
      5     -11.2331      2.00000
      6     -10.9475      2.00000
      7     -10.7752      2.00000
      8     -10.7118      2.00000
      9     -10.6617      2.00000
     10     -10.5873      2.00000
     11     -10.5724      2.00000
     12     -10.5107      2.00000
     13     -10.4993      2.00000
     14     -10.3367      2.00000
     15     -10.3273      2.00000
     16     -10.2452      2.00000
     17     -10.2358      2.00000
     18     -10.2022      2.00000
     19      -0.7809      2.00000
     20      -0.2104      2.00000
     21      -0.1397      2.00000
     22      -0.1303      2.00000
     23       0.1417      2.00000
     24       0.1767      2.00000
     25       0.2272      2.00000
     26       0.4570      2.00000
     27       0.7960      2.00000
     28       0.9484      2.00000
     29       0.9561      2.00000
     30       0.9865      2.00000
     31       1.2401      2.00000
     32       1.2492      2.00000
     33       1.6080      2.00000
     34       1.6755      2.00000
     35       1.8233      2.00000
     36       1.8520      2.00000
     37       2.2446      2.00000
     38       2.3089      2.00000
     39       2.4476      2.00000
     40       2.7775      2.00000
     41       3.0632      2.00000
     42       3.1125      2.00000
     43       3.1949      2.00000
     44       3.2823      2.00000
     45       3.4125      2.00000
     46       3.5049      2.00000
     47       3.5435      2.00000
     48       3.6641      2.00000
     49       3.9281      2.00000
     50       3.9746      2.00000
     51       4.2487      2.00000
     52       4.2972      2.00000
     53       4.4311      2.00000
     54       4.4810      2.00000
     55       4.4916      2.00000
     56       4.5801      2.00000
     57       4.6197      2.00000
     58       4.7341      2.00000
     59       4.9889      2.00000
     60       5.0479      2.00000
     61       5.0737      2.00000
     62       5.2498      2.00000
     63       5.2785      2.00000
     64       5.2800      2.00000
     65       5.4445      2.00000
     66       5.4951      2.00000
     67       5.5737      2.00000
     68       5.5795      2.00000
     69       5.6288      2.00000
     70       5.7930      2.00000
     71       5.8573      2.00000
     72       5.8888      2.00000
     73      12.6880      0.00000
     74      13.4300      0.00000
     75      14.4069      0.00000
     76      15.1608      0.00000
     77      15.3737      0.00000
     78      15.4066      0.00000
     79      16.1519      0.00000
     80      16.3779      0.00000
     81      16.5320      0.00000
     82      16.7977      0.00000
     83      16.8475      0.00000
     84      16.8719      0.00000
     85      17.0473      0.00000
     86      17.1059      0.00000
     87      17.2093      0.00000
     88      17.6720      0.00000

 k-point     3 :       0.3333    0.0000    0.2500
  band No.  band energies     occupation 
      1     -12.6677      2.00000
      2     -12.4673      2.00000
      3     -12.0503      2.00000
      4     -11.7202      2.00000
      5     -11.3568      2.00000
      6     -11.1388      2.00000
      7     -11.1077      2.00000
      8     -10.9282      2.00000
      9     -10.8392      2.00000
     10     -10.7584      2.00000
     11     -10.6471      2.00000
     12     -10.6393      2.00000
     13     -10.5576      2.00000
     14     -10.4248      2.00000
     15     -10.3469      2.00000
     16     -10.3455      2.00000
     17     -10.2207      2.00000
     18     -10.1930      2.00000
     19      -0.6755      2.00000
     20      -0.2853      2.00000
     21      -0.2508      2.00000
     22      -0.1517      2.00000
     23      -0.0238      2.00000
     24       0.0016      2.00000
     25       0.3665      2.00000
     26       0.6659      2.00000
     27       0.7948      2.00000
     28       0.8143      2.00000
     29       1.0882      2.00000
     30       1.1742      2.00000
     31       1.3831      2.00000
     32       1.5984      2.00000
     33       1.6518      2.00000
     34       2.0126      2.00000
     35       2.0236      2.00000
     36       2.1073      2.00000
     37       2.7370      2.00000
     38       2.8318      2.00000
     39       2.9470      2.00000
     40       3.0365      2.00000
     41       3.0672      2.00000
     42       3.1601      2.00000
     43       3.3566      2.00000
     44       3.5185      2.00000
     45       3.5246      2.00000
     46       3.6459      2.00000
     47       3.6651      2.00000
     48       3.7317      2.00000
     49       3.8151      2.00000
     50       4.1256      2.00000
     51       4.1279      2.00000
     52       4.1610      2.00000
     53       4.3129      2.00000
     54       4.3236      2.00000
     55       4.5081      2.00000
     56       4.5306      2.00000
     57       4.5385      2.00000
     58       4.5650      2.00000
     59       4.6481      2.00000
     60       4.8912      2.00000
     61       4.9254      2.00000
     62       4.9531      2.00000
     63       5.0907      2.00000
     64       5.1089      2.00000
     65       5.2755      2.00000
     66       5.3452      2.00000
     67       5.3594      2.00000
     68       5.4376      2.00000
     69       5.5411      2.00000
     70       5.6026      2.00000
     71       5.7547      2.00000
     72       5.7780      2.00000
     73      13.8879      0.00000
     74      14.4114      0.00000
     75      15.1989      0.00000
     76      15.4992      0.00000
     77      15.5659      0.00000
     78      15.8977      0.00000
     79      15.9379      0.00000
     80      15.9442      0.00000
     81      16.0636      0.00000
     82      16.2869      0.00000
     83      16.4256      0.00000
     84      16.6059      0.00000
     85      16.6525      0.00000
     86      16.6808      0.00000
     87      16.7009      0.00000
     88      16.9287      0.00000

 k-point     4 :       0.5000    0.0000    0.2500
  band No.  band energies     occupation 
[...]
      LOOP:  cpu time    7.6315: real time    7.6936

 Broyden mixing:
  rms(total) = 0.65831E-05    rms(broyden)= 0.65776E-05
  rms(prec ) = 0.71812E-05
  weight for this iteration     100.00

 eigenvalues of (default mixing * dielectric matrix)
  average eigenvalue GAMMA=   1.8170
  2.7691  2.5176  2.2964  1.9378  1.2798  0.9382  0.9803

 Free energy of the ion-electron system (eV)
  ---------------------------------------------------
  -Hartree energ DENC   =        -0.17810798
  -V(xc)+E(xc)   XCENC  =         0.01440688
  PAW double counting   =         0.15591329       -0.15548761
  entropy T*S    EENTRO =         0.00000000
  eigenvalues    EBANDS =        -1.53629937
  ---------------------------------------------------
  free energy    TOTEN  =        -1.69957478 eV

  energy without entropy =       -1.69957478


----------------------------------------- Iteration    3(  10)  ---------------------------------------


   POT+DIJ:  cpu time    0.4131: real time    0.4189
    HAMIL1:  cpu time    1.3438: real time    1.3586
    LRDIAG:  cpu time    0.1157: real time    0.1164
    LRDIIS:  cpu time    4.4181: real time    4.4684
    LRDIAG:  cpu time    0.1006: real time    0.1018
    MIXING:  cpu time    0.0038: real time    0.0038
    --------------------------------------------
      LOOP:  cpu time    7.2386: real time    7.3209

 Broyden mixing:
  rms(total) = 0.29359E-05    rms(broyden)= 0.29357E-05
  rms(prec ) = 0.31382E-05
  weight for this iteration     100.00

 eigenvalues of (default mixing * dielectric matrix)
  average eigenvalue GAMMA=   1.8271
  2.8002  2.6044  2.3688  1.9959  1.8585  0.9832  0.9832  1.0224

 Free energy of the ion-electron system (eV)
  ---------------------------------------------------
  -Hartree energ DENC   =        -0.17810341
  -V(xc)+E(xc)   XCENC  =         0.01440653
  PAW double counting   =         0.15591498       -0.15548935
  entropy T*S    EENTRO =         0.00000000
  eigenvalues    EBANDS =        -1.53630101
  ---------------------------------------------------
  free energy    TOTEN  =        -1.69957225 eV

  energy without entropy =       -1.69957225


----------------------------------------- Iteration    3(  11)  ---------------------------------------


   POT+DIJ:  cpu time    0.4175: real time    0.4229
    HAMIL1:  cpu time    1.3661: real time    1.3785
    LRDIAG:  cpu time    0.1190: real time    0.1198
    LRDIIS:  cpu time    4.5778: real time    4.6062
    LRDIAG:  cpu time    0.1049: real time    0.1056
    MIXING:  cpu time    0.0052: real time    0.0052
    --------------------------------------------
      LOOP:  cpu time    7.4593: real time    7.5125

 Broyden mixing:
  rms(total) = 0.60119E-06    rms(broyden)= 0.60112E-06
  rms(prec ) = 0.63008E-06
  weight for this iteration     100.00

 eigenvalues of (default mixing * dielectric matrix)
  average eigenvalue GAMMA=   1.8271
  2.7916  2.6919  2.4699  2.2780  1.9780  0.9668  0.9681  0.9681  1.3313

 Free energy of the ion-electron system (eV)
  ---------------------------------------------------
  -Hartree energ DENC   =        -0.17810420
  -V(xc)+E(xc)   XCENC  =         0.01440663
  PAW double counting   =         0.15590676       -0.15548112
  entropy T*S    EENTRO =         0.00000000
  eigenvalues    EBANDS =        -1.53630101
  ---------------------------------------------------
  free energy    TOTEN  =        -1.69957295 eV

  energy without entropy =       -1.69957295


------------------------ aborting loop because EDIFF is reached ----------------------------------------


 change of polarisation eV/A/(eV/A) component  3 :    -0.004    -0.002     3.175
 dielectric tensor                  component  3 :    -0.003    -0.001     3.237


--------------------------------------------------------------------------------------------------------


    FORLOC:  cpu time    0.0130: real time    0.0130
    FORNL :  cpu time    2.1231: real time    2.1408
    STRESS:  cpu time    4.3421: real time    4.3925
    FORCOR:  cpu time    0.0976: real time    0.0980
    OFIELD:  cpu time    0.0009: real time    0.0009
    FORLOC:  cpu time    0.0219: real time    0.0219
    FORNL :  cpu time    2.0502: real time    2.0581
    STRESS:  cpu time    4.1642: real time    4.2036
    FORCOR:  cpu time    0.0833: real time    0.0837
    OFIELD:  cpu time    0.0009: real time    0.0009
    FORNLD:  cpu time    1.9765: real time    1.9859

 PIEZOELECTRIC TENSOR FIELD DIRECTION 3  (e Angst)
 -----------------------------------------------------------------------------
     0.00009 -0.00000 -0.00000           ( -0.00000 -0.00000 -0.00000)
    -0.00000  0.00009  0.00000           ( -0.00000 -0.00000 -0.00000)
    -0.00000 -0.00000 -0.00007           ( -0.00000 -0.00000 -0.00001)

 PIEZOELECTRIC TENSOR FIELD DIRECTION 3  (C/m^2)
 -----------------------------------------------------------------------------
     0.00001 -0.00000 -0.00000
    -0.00000  0.00001  0.00000
    -0.00000 -0.00000 -0.00000


      POSITION         DIRECTION 3           BORN EFFECTIVE CHARGE    (rigid.aug.   ionic)
 -----------------------------------------------------------------------------------------
      0.00000      2.75640      0.24410     0.00000  0.00000  2.92928 (  0.01907  3.00000)
      0.00000      2.75640      4.09302     0.00000  0.00000  2.92927 (  0.01907  3.00000)
      0.00000      0.00000      1.92446     0.00000  0.00000  2.92927 (  0.01907  3.00000)
      2.38711      1.37820      2.41266     0.00000 -0.00000  2.92928 (  0.01907  3.00000)
      0.00000      0.00000      4.58122    -0.00000 -0.00000  2.92928 (  0.01907  3.00000)
      0.00000      0.00000      8.43014    -0.00000  0.00000  2.92927 (  0.01907  3.00000)
      2.38711      1.37820      6.26158    -0.00000  0.00000  2.92927 (  0.01907  3.00000)
      0.00000      2.75640      6.74978     0.00000  0.00000  2.92928 (  0.01907  3.00000)
      2.38711      1.37820      8.91834    -0.00000 -0.00000  2.92928 (  0.01907  3.00000)
      2.38711      1.37820     12.76726     0.00000  0.00000  2.92927 (  0.01907  3.00000)
      0.00000      2.75640     10.59870     0.00000  0.00000  2.92927 (  0.01907  3.00000)
      0.00000      0.00000     11.08690     0.00000 -0.00000  2.92928 (  0.01907  3.00000)
      1.46000      0.00000      3.25284     0.00000  0.35167 -1.95326 ( -0.66652  6.00000)
      0.92711      1.37820      1.08428    -0.00000  0.35167 -1.95326 ( -0.66652  6.00000)
     -0.73000      1.26440      3.25284    -0.30456 -0.17584 -1.95326 ( -0.66652  6.00000)
      3.11711      0.11380      1.08428    -0.30456 -0.17584 -1.95326 ( -0.66652  6.00000)
      1.65711      2.87020      3.25284     0.30456 -0.17584 -1.95326 ( -0.66652  6.00000)
      3.11711      2.64260      1.08428     0.30456 -0.17584 -1.95326 ( -0.66652  6.00000)
      3.84711      1.37820      7.58996     0.00000  0.35167 -1.95326 ( -0.66652  6.00000)
     -1.46000      2.75640      5.42140    -0.00000  0.35167 -1.95326 ( -0.66652  6.00000)
      1.65711      2.64260      7.58996    -0.30456 -0.17584 -1.95326 ( -0.66652  6.00000)
      0.73000      1.49200      5.42140    -0.30456 -0.17584 -1.95326 ( -0.66652  6.00000)
      1.65711      0.11380      7.58996     0.30456 -0.17584 -1.95326 ( -0.66652  6.00000)
      0.73000      4.02080      5.42140     0.30456 -0.17584 -1.95326 ( -0.66652  6.00000)
      1.46000      2.75640     11.92708     0.00000  0.35167 -1.95326 ( -0.66652  6.00000)
      3.31423      0.00000      9.75852    -0.00000  0.35167 -1.95326 ( -0.66652  6.00000)
     -0.73000      4.02080     11.92708    -0.30456 -0.17584 -1.95326 ( -0.66652  6.00000)
     -1.65711      2.87020      9.75852    -0.30456 -0.17584 -1.95326 ( -0.66652  6.00000)
     -0.73000      1.49200     11.92708     0.30456 -0.17584 -1.95326 ( -0.66652  6.00000)
      0.73000      1.26440      9.75852     0.30456 -0.17584 -1.95326 ( -0.66652  6.00000)
 -----------------------------------------------------------------------------------------
    total drift (improves with k-points):   0.00000 -0.00000 -0.00731




--------------------------------------------------------------------------------------------------------


  LATTYP: Found a hexagonal cell.
 ALAT       =     4.7742263453
 C/A-ratio  =     2.7253335829
  
  Lattice vectors:
  
 A1 = (   4.7742263453,   0.0000000000,  -0.0000000000)
 A2 = (  -2.3871131726,   4.1346012984,   0.0000000000)
 A3 = (  -0.0000000000,   0.0000000000,  13.0113593913)


Analysis of symmetry for initial positions (statically):
=====================================================================
 Subroutine PRICEL returns following result:
 
  LATTYP: Found a trigonal (rhomboedric) cell.
 ALAT       =     5.1389059017
 COS(alpha) =     0.5684464599
  
  Lattice vectors:
  
 A1 = (  -2.3871131726,  -1.3782004328,  -4.3371197971)
 A2 = (   0.0000000000,   2.7564008656,  -4.3371197971)
 A3 = (   2.3871131726,  -1.3782004328,  -4.3371197971)
 
   3 primitive cells build up your supercell.
 

 Routine SETGRP: Setting up the symmetry group for a 
 hexagonal supercell.


 Subroutine GETGRP returns: Found 12 space group operations
 (whereof  6 operations were pure point group operations)
 out of a pool of 24 trial point group operations.


The static configuration has the point symmetry S_6 .
 The point group associated with its full space group is D_3d.


Analysis of symmetry for dynamics (positions and initial velocities):
=====================================================================
 Subroutine PRICEL returns following result:
 
  LATTYP: Found a trigonal (rhomboedric) cell.
 ALAT       =     5.1389059017
 COS(alpha) =     0.5684464599
  
  Lattice vectors:
  
 A1 = (  -2.3871131726,  -1.3782004328,  -4.3371197971)
 A2 = (   0.0000000000,   2.7564008656,  -4.3371197971)
 A3 = (   2.3871131726,  -1.3782004328,  -4.3371197971)
 
   3 primitive cells build up your supercell.
 

 Routine SETGRP: Setting up the symmetry group for a 
 hexagonal supercell.


 Subroutine GETGRP returns: Found 12 space group operations
 (whereof  6 operations were pure point group operations)
 out of a pool of 24 trial point group operations.


The dynamic configuration has the point symmetry S_6 .
 The point group associated with its full space group is D_3d.


 Subroutine INISYM returns: Found 12 space group operations
 (whereof  6 operations are pure point group operations),
 and found     3 'primitive' translations



 MACROSCOPIC STATIC DIELECTRIC TENSOR (including local field effects in DFT)
 ------------------------------------------------------
           3.276074     0.000000     0.000000
           0.000000     3.276074    -0.000000
           0.000000     0.000000     3.236835
 ------------------------------------------------------



--------------------------------------------------------------------------------------------------------


  LATTYP: Found a hexagonal cell.
 ALAT       =     4.7742263453
 C/A-ratio  =     2.7253335829
  
  Lattice vectors:
  
 A1 = (   4.7742263453,   0.0000000000,  -0.0000000000)
 A2 = (  -2.3871131726,   4.1346012984,   0.0000000000)
 A3 = (  -0.0000000000,   0.0000000000,  13.0113593913)


Analysis of symmetry for initial positions (statically):
=====================================================================
 Subroutine PRICEL returns following result:
 
  LATTYP: Found a trigonal (rhomboedric) cell.
 ALAT       =     5.1389059017
 COS(alpha) =     0.5684464599
  
  Lattice vectors:
  
 A1 = (  -2.3871131726,  -1.3782004328,  -4.3371197971)
 A2 = (   0.0000000000,   2.7564008656,  -4.3371197971)
 A3 = (   2.3871131726,  -1.3782004328,  -4.3371197971)
 
   3 primitive cells build up your supercell.
 

 Routine SETGRP: Setting up the symmetry group for a 
 hexagonal supercell.


 Subroutine GETGRP returns: Found 12 space group operations
 (whereof  6 operations were pure point group operations)
 out of a pool of 24 trial point group operations.


The static configuration has the point symmetry S_6 .
 The point group associated with its full space group is D_3d.


Analysis of symmetry for dynamics (positions and initial velocities):
=====================================================================
 Subroutine PRICEL returns following result:
 
  LATTYP: Found a trigonal (rhomboedric) cell.
 ALAT       =     5.1389059017
 COS(alpha) =     0.5684464599
  
  Lattice vectors:
  
 A1 = (  -2.3871131726,  -1.3782004328,  -4.3371197971)
 A2 = (   0.0000000000,   2.7564008656,  -4.3371197971)
 A3 = (   2.3871131726,  -1.3782004328,  -4.3371197971)
 
   3 primitive cells build up your supercell.
 

 Routine SETGRP: Setting up the symmetry group for a 
 hexagonal supercell.


 Subroutine GETGRP returns: Found 12 space group operations
 (whereof  6 operations were pure point group operations)
 out of a pool of 24 trial point group operations.


The dynamic configuration has the point symmetry S_6 .
 The point group associated with its full space group is D_3d.


 Subroutine INISYM returns: Found 12 space group operations
 (whereof  6 operations are pure point group operations),
 and found     3 'primitive' translations



--------------------------------------------------------------------------------------------------------




 MACROSCOPIC STATIC DIELECTRIC TENSOR (including local field effects in DFT)
 ------------------------------------------------------
           3.276074     0.000000     0.000000
           0.000000     3.276074    -0.000000
           0.000000     0.000000     3.236835
 ------------------------------------------------------


 PIEZOELECTRIC TENSOR (including local field effects)  for field in x, y, z        (e  Angst)
          XX          YY          ZZ          XY          YZ          ZX
  --------------------------------------------------------------------------------
  x     0.00096    -0.00097     0.00001    -0.00000     0.00026    -0.00000
  y     0.00004    -0.00005    -0.00000    -0.00000     0.00000    -0.00000
  z     0.00009     0.00009    -0.00007    -0.00000    -0.00000    -0.00000

 PIEZOELECTRIC TENSOR (including local field effects)  for field in x, y, z        (C/m^2)
          XX          YY          ZZ          XY          YZ          ZX
  --------------------------------------------------------------------------------
  x     0.00000     0.00000     0.00000     0.00000     0.00000     0.00000
  y     0.00000     0.00000     0.00000     0.00000     0.00000     0.00000
  z     0.00000     0.00000     0.00000     0.00000     0.00000     0.00000

 BORN EFFECTIVE CHARGES (including local field effects) (in e, cummulative output)
 ---------------------------------------------------------------------------------
 ion    1
    1     2.95997    -0.02950    -0.00000
    2     0.02949     2.95996    -0.00000
    3    -0.00000     0.00000     2.92952
 ion    2
    1     2.95996    -0.02948    -0.00000
    2     0.02949     2.95996    -0.00000
    3    -0.00000     0.00000     2.92952
 ion    3
    1     2.95997     0.02950     0.00000
    2    -0.02949     2.95996    -0.00000
    3    -0.00000     0.00000     2.92952
 ion    4
    1     2.95996     0.02948     0.00000
    2    -0.02949     2.95996    -0.00000
    3    -0.00000     0.00000     2.92952
 ion    5
    1     2.95997    -0.02950    -0.00000
    2     0.02949     2.95996    -0.00000
    3    -0.00000     0.00000     2.92952
 ion    6
    1     2.95996    -0.02948    -0.00000
    2     0.02949     2.95996    -0.00000
    3    -0.00000     0.00000     2.92952
 ion    7
    1     2.95997     0.02950     0.00000
    2    -0.02949     2.95996    -0.00000
    3    -0.00000     0.00000     2.92952
 ion    8
    1     2.95996     0.02948     0.00000
    2    -0.02949     2.95996    -0.00000
    3    -0.00000     0.00000     2.92952
 ion    9
    1     2.95997    -0.02950    -0.00000
    2     0.02949     2.95996    -0.00000
    3    -0.00000     0.00000     2.92952
 ion   10
    1     2.95996    -0.02948    -0.00000
    2     0.02949     2.95996    -0.00000
    3    -0.00000     0.00000     2.92952
 ion   11
    1     2.95997     0.02950     0.00000
    2    -0.02949     2.95996    -0.00000
    3    -0.00000     0.00000     2.92952
 ion   12
    1     2.95996     0.02948     0.00000
    2    -0.02949     2.95996    -0.00000
    3    -0.00000     0.00000     2.92952
 ion   13
    1    -2.07316     0.00000     0.00000
    2     0.00002    -1.87343     0.25818
    3     0.00000     0.35167    -1.95301
 ion   14
    1    -2.07322     0.00000     0.00000
    2    -0.00002    -1.87343     0.25818
    3    -0.00000     0.35167    -1.95301
 ion   15
    1    -1.92339     0.08647    -0.22359
    2     0.08651    -2.02325    -0.12909
    3    -0.30456    -0.17584    -1.95301
 ion   16
    1    -1.92334     0.08653    -0.22360
    2     0.08649    -2.02325    -0.12909
    3    -0.30456    -0.17584    -1.95301
 ion   17
    1    -1.92339    -0.08647     0.22359
    2    -0.08649    -2.02325    -0.12909
    3     0.30456    -0.17584    -1.95301
 ion   18
    1    -1.92334    -0.08653     0.22360
    2    -0.08651    -2.02325    -0.12909
    3     0.30456    -0.17584    -1.95301
 ion   19
    1    -2.07316     0.00000     0.00000
    2     0.00002    -1.87343     0.25818
    3     0.00000     0.35167    -1.95301
 ion   20
    1    -2.07322     0.00000     0.00000
    2    -0.00002    -1.87343     0.25818
    3    -0.00000     0.35167    -1.95301
 ion   21
    1    -1.92339     0.08647    -0.22359
    2     0.08651    -2.02325    -0.12909
    3    -0.30456    -0.17584    -1.95301
 ion   22
    1    -1.92334     0.08653    -0.22360
    2     0.08649    -2.02325    -0.12909
    3    -0.30456    -0.17584    -1.95301
 ion   23
    1    -1.92339    -0.08647     0.22359
    2    -0.08649    -2.02325    -0.12909
    3     0.30456    -0.17584    -1.95301
 ion   24
    1    -1.92334    -0.08653     0.22360
    2    -0.08651    -2.02325    -0.12909
    3     0.30456    -0.17584    -1.95301
 ion   25
    1    -2.07316     0.00000     0.00000
    2     0.00002    -1.87343     0.25818
    3     0.00000     0.35167    -1.95301
 ion   26
    1    -2.07322     0.00000     0.00000
    2    -0.00002    -1.87343     0.25818
    3    -0.00000     0.35167    -1.95301
 ion   27
    1    -1.92339     0.08647    -0.22359
    2     0.08651    -2.02325    -0.12909
    3    -0.30456    -0.17584    -1.95301
 ion   28
    1    -1.92334     0.08653    -0.22360
    2     0.08649    -2.02325    -0.12909
    3    -0.30456    -0.17584    -1.95301
 ion   29
    1    -1.92339    -0.08647     0.22359
    2    -0.08649    -2.02325    -0.12909
    3     0.30456    -0.17584    -1.95301
 ion   30
    1    -1.92334    -0.08653     0.22360
    2    -0.08651    -2.02325    -0.12909
    3     0.30456    -0.17584    -1.95301


--------------------------------------------------------------------------------------------------------


     LOOP+:  cpu time  924.6615: real time  931.6444
    4ORBIT:  cpu time    0.0000: real time    0.0000

 total amount of memory used by VASP MPI-rank0    84274. kBytes
=======================================================================

   base      :      30000. kBytes
   nonl-proj :      11503. kBytes
   fftplans  :      18738. kBytes
   grid      :      12016. kBytes
   one-center:         92. kBytes
   wavefun   :      11925. kBytes

  
  
 General timing and accounting informations for this job:
 ========================================================
  
                  Total CPU time used (sec):      926.213
                            User time (sec):      913.556
                          System time (sec):       12.657
                         Elapsed time (sec):      934.176
  
                   Maximum memory used (kb):      275856.
                   Average memory used (kb):           0.
  
                          Minor page faults:       603044
                          Major page faults:            1
                 Voluntary context switches:          340
