<?xml version="1.0" encoding="ISO-8859-1"?>
<modeling>
 <generator>
  <i name="program" type="string">vasp </i>
  <i name="version" type="string">5.4.4.18Apr17-6-g9f103f2a35  </i>
  <i name="subversion" type="string">(build Jan  3 2025 13:41:23) complex            parallel </i>
  <i name="platform" type="string">LinuxGNU_vivaldi </i>
  <i name="date" type="string">2025 05 18 </i>
  <i name="time" type="string">14:54:18 </i>
 </generator>
 <incar>
  <i type="string" name="PREC">accurate</i>
  <i type="int" name="IALGO">    38</i>
  <i type="string" name="ALGO"> Normal</i>
  <i type="logical" name="ADDGRID"> T  </i>
  <i type="int" name="NELMIN">     5</i>
  <i type="int" name="IBRION">    -1</i>
  <i name="EDIFF">      0.00000001</i>
  <i name="ENCUT">    500.00000000</i>
  <i type="logical" name="LREAL"> F  </i>
  <i type="int" name="ISMEAR">     0</i>
  <i name="SIGMA">      0.01000000</i>
  <i type="int" name="LMAXMIX">     4</i>
  <i type="logical" name="LWAVE"> F  </i>
  <i type="logical" name="LCHARG"> F  </i>
  <v type="int" name="KPOINT_BSE">    -1     0     0     0</v>
  <i type="string" name="GGA"> PS</i>
  <i type="logical" name="LEPSILON"> T  </i>
 </incar>
 <structure name="primitive_cell" >
  <crystal>
   <varray name="basis" >
    <v>      -2.38711317      -1.37820043      -4.33711980 </v>
    <v>       0.00000000       2.75640087      -4.33711980 </v>
    <v>       2.38711317      -1.37820043      -4.33711980 </v>
   </varray>
   <i name="volume">     85.61267359 </i>
   <varray name="rec_basis" >
    <v>      -0.20945802      -0.12093064      -0.07685592 </v>
    <v>      -0.00000000       0.24186129      -0.07685592 </v>
    <v>       0.20945802      -0.12093064      -0.07685592 </v>
   </varray>
  </crystal>
  <varray name="positions" >
   <v>      -0.35209371      -0.35209371      -0.35209371 </v>
   <v>      -0.44419135       0.25000000      -0.05580865 </v>
   <v>       0.25000000      -0.05580865      -0.44419135 </v>
   <v>      -0.05580865      -0.44419135       0.25000000 </v>
   <v>      -0.25000000       0.05580865       0.44419135 </v>
   <v>       0.05580865       0.44419135      -0.25000000 </v>
   <v>       0.44419135      -0.25000000       0.05580865 </v>
   <v>      -0.14790629      -0.14790629      -0.14790629 </v>
   <v>       0.35209371       0.35209371       0.35209371 </v>
   <v>       0.14790629       0.14790629       0.14790629 </v>
  </varray>
 </structure>
 <varray name="primitive_index" >
  <v type="int" >        1 </v>
  <v type="int" >       14 </v>
  <v type="int" >       16 </v>
  <v type="int" >       18 </v>
  <v type="int" >       27 </v>
  <v type="int" >       29 </v>
  <v type="int" >       25 </v>
  <v type="int" >       11 </v>
  <v type="int" >       10 </v>
  <v type="int" >        4 </v>
 </varray>
 <kpoints>
  <generation param="Gamma">
   <v type="int" name="divisions">       6        6        2 </v>
   <v name="usershift">      0.00000000       0.00000000       0.50000000 </v>
   <v name="genvec1">      0.16666667       0.00000000       0.00000000 </v>
   <v name="genvec2">      0.00000000       0.16666667       0.00000000 </v>
   <v name="genvec3">      0.00000000       0.00000000       0.50000000 </v>
   <v name="shift">      0.00000000       0.00000000       0.50000000 </v>
  </generation>
  <varray name="kpointlist" >
   <v>       0.00000000       0.00000000       0.25000000 </v>
   <v>       0.16666667       0.00000000       0.25000000 </v>
   <v>       0.33333333       0.00000000       0.25000000 </v>
   <v>       0.50000000       0.00000000       0.25000000 </v>
   <v>      -0.33333333       0.00000000       0.25000000 </v>
   <v>      -0.16666667       0.00000000       0.25000000 </v>
   <v>       0.16666667       0.16666667       0.25000000 </v>
   <v>       0.33333333       0.16666667       0.25000000 </v>
   <v>       0.50000000       0.16666667       0.25000000 </v>
   <v>       0.33333333       0.33333333       0.25000000 </v>
  </varray>
  <varray name="weights" >
   <v>       0.02777778 </v>
   <v>       0.08333333 </v>
   <v>       0.08333333 </v>
   <v>       0.08333333 </v>
   <v>       0.08333333 </v>
   <v>       0.08333333 </v>
   <v>       0.16666667 </v>
   <v>       0.16666667 </v>
   <v>       0.16666667 </v>
   <v>       0.05555556 </v>
  </varray>
 </kpoints>
 <parameters>
  <separator name="general" >
   <i type="string" name="SYSTEM">unknown system</i>
   <i type="logical" name="LCOMPAT"> F  </i>
  </separator>
  <separator name="electronic" >
   <i type="string" name="PREC">accura</i>
   <i name="ENMAX">    500.00000000</i>
   <i name="ENAUG">    605.39200000</i>
   <i name="EDIFF">      0.00000001</i>
   <i type="int" name="IALGO">    38</i>
   <i type="int" name="IWAVPR">    10</i>
   <i type="int" name="NBANDS">    88</i>
   <i name="NELECT">    144.00000000</i>
   <i type="int" name="TURBO">     0</i>
   <i type="int" name="IRESTART">     0</i>
   <i type="int" name="NREBOOT">     0</i>
   <i type="int" name="NMIN">     0</i>
   <i name="EREF">      0.00000000</i>
   <separator name="electronic smearing" >
    <i type="int" name="ISMEAR">     0</i>
    <i name="SIGMA">      0.01000000</i>
    <i name="KSPACING">      0.50000000</i>
    <i type="logical" name="KGAMMA"> T  </i>
   </separator>
   <separator name="electronic projectors" >
    <i type="logical" name="LREAL"> F  </i>
    <v name="ROPT">      0.00000000      0.00000000</v>
    <i type="int" name="LMAXPAW">  -100</i>
    <i type="int" name="LMAXMIX">     4</i>
    <i type="logical" name="NLSPLINE"> F  </i>
   </separator>
   <separator name="electronic startup" >
    <i type="int" name="ISTART">     0</i>
    <i type="int" name="ICHARG">     2</i>
    <i type="int" name="INIWAV">     1</i>
   </separator>
   <separator name="electronic spin" >
    <i type="int" name="ISPIN">     1</i>
    <i type="logical" name="LNONCOLLINEAR"> F  </i>
    <v name="MAGMOM">      1.00000000      1.00000000      1.00000000      1.00000000      1.00000000      1.00000000      1.00000000      1.00000000      1.00000000      1.00000000      1.00000000      1.00000000      1.00000000      1.00000000      1.00000000      1.00000000      1.00000000      1.00000000      1.00000000      1.00000000
      1.00000000      1.00000000      1.00000000      1.00000000      1.00000000      1.00000000      1.00000000      1.00000000      1.00000000      1.00000000</v>
    <i name="NUPDOWN">     -1.00000000</i>
    <i type="logical" name="LSORBIT"> F  </i>
    <v name="SAXIS">      0.00000000      0.00000000      1.00000000</v>
    <i type="logical" name="LSPIRAL"> F  </i>
    <v name="QSPIRAL">      0.00000000      0.00000000      0.00000000</v>
    <i type="logical" name="LZEROZ"> F  </i>
   </separator>
   <separator name="electronic exchange-correlation" >
    <i type="logical" name="LASPH"> F  </i>
    <i type="logical" name="LMETAGGA"> F  </i>
   </separator>
   <separator name="electronic convergence" >
    <i type="int" name="NELM">    60</i>
    <i type="int" name="NELMDL">     0</i>
    <i type="int" name="NELMIN">     5</i>
    <i name="ENINI">    500.00000000</i>
    <separator name="electronic convergence detail" >
     <i type="logical" name="LDIAG"> T  </i>
     <i type="logical" name="LSUBROT"> F  </i>
     <i name="WEIMIN">      0.00000000</i>
     <i name="EBREAK">      0.00000000</i>
     <i name="DEPER">      0.30000000</i>
     <i type="int" name="NRMM">     4</i>
     <i name="TIME">      0.40000000</i>
    </separator>
   </separator>
   <separator name="electronic mixer" >
    <i name="AMIX">      0.40000000</i>
    <i name="BMIX">      1.00000000</i>
    <i name="AMIN">      0.10000000</i>
    <i name="AMIX_MAG">      1.60000000</i>
    <i name="BMIX_MAG">      1.00000000</i>
    <separator name="electronic mixer details" >
     <i type="int" name="IMIX">     4</i>
     <i type="logical" name="MIXFIRST"> F  </i>
     <i type="int" name="MAXMIX">   -45</i>
     <i name="WC">    100.00000000</i>
     <i type="int" name="INIMIX">     1</i>
     <i type="int" name="MIXPRE">     1</i>
     <i type="int" name="MREMOVE">     5</i>
    </separator>
   </separator>
   <separator name="electronic dipolcorrection" >
    <i type="logical" name="LDIPOL"> F  </i>
    <i type="logical" name="LMONO"> F  </i>
    <i type="int" name="IDIPOL">     0</i>
    <i name="EPSILON">      1.00000000</i>
    <v name="DIPOL">   -100.00000000   -100.00000000   -100.00000000</v>
    <i name="EFIELD">      0.00000000</i>
   </separator>
  </separator>
  <separator name="grids" >
   <i type="int" name="NGX">    36</i>
   <i type="int" name="NGY">    36</i>
   <i type="int" name="NGZ">    96</i>
   <i type="int" name="NGXF">    72</i>
   <i type="int" name="NGYF">    72</i>
   <i type="int" name="NGZF">   192</i>
   <i type="logical" name="ADDGRID"> T  </i>
  </separator>
  <separator name="ionic" >
   <i type="int" name="NSW">     0</i>
   <i type="int" name="IBRION">    -1</i>
   <i type="int" name="MDALGO">     0</i>
   <i type="int" name="ISIF">     2</i>
   <i name="PSTRESS">      0.00000000</i>
   <i name="EDIFFG">      0.00000010</i>
   <i type="int" name="NFREE">     0</i>
   <i name="POTIM">      0.50000000</i>
   <i name="SMASS">     -3.00000000</i>
   <i name="SCALEE">      1.00000000</i>
  </separator>
  <separator name="ionic md" >
   <i name="TEBEG">      0.00010000</i>
   <i name="TEEND">      0.00010000</i>
   <i type="int" name="NBLOCK">     1</i>
   <i type="int" name="KBLOCK">     1</i>
   <i type="int" name="NPACO">   256</i>
   <i name="APACO">     16.00000000</i>
  </separator>
  <separator name="symmetry" >
   <i type="int" name="ISYM">     2</i>
   <i name="SYMPREC">      0.00001000</i>
  </separator>
  <separator name="dos" >
   <i type="int" name="LORBIT">     0</i>
   <v name="RWIGS">     -1.00000000     -1.00000000</v>
   <i type="int" name="NEDOS">   301</i>
   <i name="EMIN">     10.00000000</i>
   <i name="EMAX">    -10.00000000</i>
   <i name="EFERMI">      0.00000000</i>
  </separator>
  <separator name="writing" >
   <i type="int" name="NWRITE">     2</i>
   <i type="logical" name="LWAVE"> F  </i>
   <i type="logical" name="LDOWNSAMPLE"> F  </i>
   <i type="logical" name="LCHARG"> F  </i>
   <i type="logical" name="LPARD"> F  </i>
   <i type="logical" name="LVTOT"> F  </i>
   <i type="logical" name="LVHAR"> F  </i>
   <i type="logical" name="LELF"> F  </i>
   <i type="logical" name="LOPTICS"> F  </i>
   <v name="STM">      0.00000000      0.00000000      0.00000000      0.00000000      0.00000000      0.00000000      0.00000000</v>
  </separator>
  <separator name="performance" >
   <i type="int" name="NPAR">     8</i>
   <i type="int" name="NSIM">     4</i>
   <i type="int" name="NBLK">    -1</i>
   <i type="logical" name="LPLANE"> T  </i>
   <i type="logical" name="LSCALAPACK"> F  </i>
   <i type="logical" name="LSCAAWARE"> F  </i>
   <i type="logical" name="LSCALU"> F  </i>
   <i type="logical" name="LASYNC"> F  </i>
   <i type="logical" name="LORBITALREAL"> F  </i>
  </separator>
  <separator name="miscellaneous" >
   <i type="int" name="IDIOT">     3</i>
   <i type="int" name="ISPECIAL">     0</i>
   <i type="logical" name="LMUSIC"> F  </i>
   <v name="POMASS">     26.98100000     16.00000000</v>
   <v name="DARWINR">      0.00000000      0.00000000</v>
   <v name="DARWINV">      1.00000000      1.00000000</v>
   <i type="logical" name="LCORR"> T  </i>
  </separator>
  <i type="logical" name="GGA_COMPAT"> T  </i>
  <i type="logical" name="LBERRY"> F  </i>
  <i type="int" name="ICORELEVEL">     0</i>
  <i type="logical" name="LDAU"> F  </i>
  <i type="int" name="I_CONSTRAINED_M">     0</i>
  <separator name="electronic exchange-correlation" >
   <i type="string" name="GGA">PS</i>
   <i type="int" name="VOSKOWN">     0</i>
   <i type="logical" name="LHFCALC"> F  </i>
   <i type="string" name="PRECFOCK"></i>
   <i type="logical" name="LSYMGRAD"> F  </i>
   <i type="logical" name="LHFONE"> F  </i>
   <i type="logical" name="LRHFCALC"> F  </i>
   <i type="logical" name="LTHOMAS"> F  </i>
   <i type="logical" name="LMODELHF"> F  </i>
   <i name="ENCUT4O">     -1.00000000</i>
   <i type="int" name="EXXOEP">     0</i>
   <i type="int" name="FOURORBIT">     0</i>
   <i name="AEXX">      0.00000000</i>
   <i name="HFALPHA">      0.00000000</i>
   <i name="MCALPHA">      0.00000000</i>
   <i name="ALDAX">      1.00000000</i>
   <i name="AGGAX">      1.00000000</i>
   <i name="ALDAC">      1.00000000</i>
   <i name="AGGAC">      1.00000000</i>
   <i type="int" name="NKREDX">     1</i>
   <i type="int" name="NKREDY">     1</i>
   <i type="int" name="NKREDZ">     1</i>
   <i type="logical" name="SHIFTRED"> F  </i>
   <i type="logical" name="ODDONLY"> F  </i>
   <i type="logical" name="EVENONLY"> F  </i>
   <i type="int" name="LMAXFOCK">     0</i>
   <i type="int" name="NMAXFOCKAE">     0</i>
   <i type="logical" name="LFOCKAEDFT"> F  </i>
   <i name="HFSCREEN">      0.00000000</i>
   <i name="HFSCREENC">      0.00000000</i>
   <i type="int" name="NBANDSGWLOW">     0</i>
  </separator>
  <separator name="vdW DFT" >
   <i type="logical" name="LUSE_VDW"> F  </i>
   <i name="Zab_VDW">     -0.84910000</i>
   <i name="PARAM1">      0.12340000</i>
   <i name="PARAM2">      1.00000000</i>
   <i name="PARAM3">      0.00000000</i>
  </separator>
  <separator name="model GW" >
   <i type="int" name="MODEL_GW">     0</i>
   <i name="MODEL_EPS0">      5.13676042</i>
   <i name="MODEL_ALPHA">      1.00000000</i>
  </separator>
  <separator name="linear response parameters" >
   <i type="logical" name="LEPSILON"> T  </i>
   <i type="logical" name="LRPA"> F  </i>
   <i type="logical" name="LNABLA"> F  </i>
   <i type="logical" name="LVEL"> F  </i>
   <i type="int" name="KINTER">     0</i>
   <i name="CSHIFT">      0.10000000</i>
   <i name="OMEGAMAX">     -1.00000000</i>
   <i name="DEG_THRESHOLD">      0.00200000</i>
   <i name="RTIME">     -0.10000000</i>
   <i name="WPLASMAI">      0.00000000</i>
   <v name="DFIELD">      0.00000000      0.00000000      0.00000000</v>
   <v name="WPLASMA">      0.00000000      0.00000000      0.00000000      0.00000000      0.00000000      0.00000000      0.00000000      0.00000000      0.00000000</v>
  </separator>
  <separator name="orbital magnetization" >
   <i type="logical" name="NUCIND"> F  </i>
   <v name="MAGPOS">      0.00000000      0.00000000      0.00000000</v>
   <i type="logical" name="LNICSALL"> T  </i>
   <i type="logical" name="ORBITALMAG"> F  </i>
   <i type="logical" name="LMAGBLOCH"> F  </i>
   <i type="logical" name="LCHIMAG"> F  </i>
   <i type="logical" name="LGAUGE"> T  </i>
   <i type="int" name="MAGATOM">     0</i>
   <v name="MAGDIPOL">      0.00000000      0.00000000      0.00000000</v>
   <v name="AVECCONST">      0.00000000      0.00000000      0.00000000</v>
  </separator>
  <separator name="response functions" >
   <i type="logical" name="LADDER"> F  </i>
   <i type="logical" name="LRPAFORCE"> F  </i>
   <i type="logical" name="LFXC"> F  </i>
   <i type="logical" name="LHARTREE"> T  </i>
   <i type="int" name="IBSE">     0</i>
   <v type="int" name="KPOINT">    -1     0     0     0</v>
   <i type="logical" name="LTCTE"> F  </i>
   <i type="logical" name="LTETE"> F  </i>
   <i type="logical" name="LTRIPLET"> F  </i>
   <i type="logical" name="LFXCEPS"> F  </i>
   <i type="logical" name="LFXHEG"> F  </i>
   <i type="int" name="NATURALO">     2</i>
   <i type="logical" name="L2ORDER"> F  </i>
   <i type="logical" name="LMP2LT"> F  </i>
   <i type="logical" name="LUSEW"> F  </i>
   <i name="ENCUTGW">     -2.00000000</i>
   <i name="ENCUTGWSOFT">     -2.00000000</i>
   <i name="ENCUTLF">     -1.00000000</i>
   <i type="int" name="LMAXMP2">    -1</i>
   <i name="SCISSOR">      0.00000000</i>
   <i type="int" name="NOMEGA">     0</i>
   <i type="int" name="NOMEGAR">     0</i>
   <i type="int" name="NBANDSGW">    -1</i>
   <i type="int" name="NBANDSO">    -1</i>
   <i type="int" name="NBANDSV">    -1</i>
   <i type="int" name="NELM">     1</i>
   <i type="int" name="NELMHF">     1</i>
   <i type="int" name="DIM">     3</i>
   <i type="int" name="ANTIRES">     0</i>
   <i name="OMEGAMAX">    -30.00000000</i>
   <i name="OMEGAMIN">    -30.00000000</i>
   <i name="OMEGATL">   -200.00000000</i>
   <i type="int" name="OMEGAGRID">   140</i>
   <i name="CSHIFT">     -0.10000000</i>
   <i type="logical" name="SELFENERGY"> F  </i>
   <i type="logical" name="LSPECTRAL"> F  </i>
   <i type="logical" name="LSPECTRALGW"> F  </i>
   <i type="logical" name="LSINGLES"> F  </i>
   <i type="logical" name="LFERMIGW"> F  </i>
   <i type="logical" name="ODDONLYGW"> F  </i>
   <i type="logical" name="EVENONLYGW"> F  </i>
   <i type="int" name="NKREDLFX">     1</i>
   <i type="int" name="NKREDLFY">     1</i>
   <i type="int" name="NKREDLFZ">     1</i>
   <i type="int" name="MAXMEM">  2800</i>
   <i type="int" name="TELESCOPE">     0</i>
   <i type="int" name="TAUPAR">     1</i>
   <i type="int" name="OMEGAPAR">    -1</i>
   <i name="LAMBDA">      1.00000000</i>
  </separator>
  <separator name="External order field" >
   <i name="OFIELD_KAPPA">      0.00000000</i>
   <v name="OFIELD_K">      0.00000000      0.00000000      0.00000000</v>
   <i name="OFIELD_Q6_NEAR">      0.00000000</i>
   <i name="OFIELD_Q6_FAR">      0.00000000</i>
   <i name="OFIELD_A">      0.00000000</i>
  </separator>
 </parameters>
 <atominfo>
  <atoms>      30 </atoms>
  <types>       2 </types>
  <array name="atoms" >
   <dimension dim="1">ion</dimension>
   <field type="string">element</field>
   <field type="int">atomtype</field>
   <set>
    <rc><c>Al</c><c>   1</c></rc>
    <rc><c>Al</c><c>   1</c></rc>
    <rc><c>Al</c><c>   1</c></rc>
    <rc><c>Al</c><c>   1</c></rc>
    <rc><c>Al</c><c>   1</c></rc>
    <rc><c>Al</c><c>   1</c></rc>
    <rc><c>Al</c><c>   1</c></rc>
    <rc><c>Al</c><c>   1</c></rc>
    <rc><c>Al</c><c>   1</c></rc>
    <rc><c>Al</c><c>   1</c></rc>
    <rc><c>Al</c><c>   1</c></rc>
    <rc><c>Al</c><c>   1</c></rc>
    <rc><c>O </c><c>   2</c></rc>
    <rc><c>O </c><c>   2</c></rc>
    <rc><c>O </c><c>   2</c></rc>
    <rc><c>O </c><c>   2</c></rc>
    <rc><c>O </c><c>   2</c></rc>
    <rc><c>O </c><c>   2</c></rc>
    <rc><c>O </c><c>   2</c></rc>
    <rc><c>O </c><c>   2</c></rc>
    <rc><c>O </c><c>   2</c></rc>
    <rc><c>O </c><c>   2</c></rc>
    <rc><c>O </c><c>   2</c></rc>
    <rc><c>O </c><c>   2</c></rc>
    <rc><c>O </c><c>   2</c></rc>
    <rc><c>O </c><c>   2</c></rc>
    <rc><c>O </c><c>   2</c></rc>
    <rc><c>O </c><c>   2</c></rc>
    <rc><c>O </c><c>   2</c></rc>
    <rc><c>O </c><c>   2</c></rc>
   </set>
  </array>
  <array name="atomtypes" >
   <dimension dim="1">type</dimension>
   <field type="int">atomspertype</field>
   <field type="string">element</field>
   <field>mass</field>
   <field>valence</field>
   <field type="string">pseudopotential</field>
   <set>
    <rc><c>  12</c><c>Al</c><c>     26.98100000</c><c>      3.00000000</c><c>  PAW_PBE Al 04Jan2001                  </c></rc>
    <rc><c>  18</c><c>O </c><c>     16.00000000</c><c>      6.00000000</c><c>  PAW_PBE O 08Apr2002                   </c></rc>
   </set>
  </array>
 </atominfo>
 <structure name="initialpos" >
  <crystal>
   <varray name="basis" >
    <v>       4.77422635       0.00000000      -0.00000000 </v>
    <v>      -2.38711317       4.13460130       0.00000000 </v>
    <v>      -0.00000000       0.00000000      13.01135939 </v>
   </varray>
   <i name="volume">    256.83802076 </i>
   <varray name="rec_basis" >
    <v>       0.20945802       0.12093064       0.00000000 </v>
    <v>      -0.00000000       0.24186129      -0.00000000 </v>
    <v>       0.00000000       0.00000000       0.07685592 </v>
   </varray>
  </crystal>
  <varray name="positions" >
   <v>       0.33333333       0.66666667       0.01876037 </v>
   <v>       0.33333333       0.66666667       0.31457296 </v>
   <v>       0.00000000       0.00000000       0.14790629 </v>
   <v>       0.66666667       0.33333333       0.18542704 </v>
   <v>       0.00000000       0.00000000       0.35209371 </v>
   <v>       0.00000000       0.00000000       0.64790629 </v>
   <v>       0.66666667       0.33333333       0.48123963 </v>
   <v>       0.33333333       0.66666667       0.51876037 </v>
   <v>       0.66666667       0.33333333       0.68542704 </v>
   <v>       0.66666667       0.33333333       0.98123963 </v>
   <v>       0.33333333       0.66666667       0.81457296 </v>
   <v>       0.00000000       0.00000000       0.85209371 </v>
   <v>       0.30580865       0.00000000       0.25000000 </v>
   <v>       0.36085801       0.33333333       0.08333333 </v>
   <v>       0.00000000       0.30580865       0.25000000 </v>
   <v>       0.66666667       0.02752468       0.08333333 </v>
   <v>       0.69419135       0.69419135       0.25000000 </v>
   <v>       0.97247532       0.63914199       0.08333333 </v>
   <v>       0.97247532       0.33333333       0.58333333 </v>
   <v>       0.02752468       0.66666667       0.41666667 </v>
   <v>       0.66666667       0.63914199       0.58333333 </v>
   <v>       0.33333333       0.36085801       0.41666667 </v>
   <v>       0.36085801       0.02752468       0.58333333 </v>
   <v>       0.63914199       0.97247532       0.41666667 </v>
   <v>       0.63914199       0.66666667       0.91666667 </v>
   <v>       0.69419135       0.00000000       0.75000000 </v>
   <v>       0.33333333       0.97247532       0.91666667 </v>
   <v>       0.00000000       0.69419135       0.75000000 </v>
   <v>       0.02752468       0.36085801       0.91666667 </v>
   <v>       0.30580865       0.30580865       0.75000000 </v>
  </varray>
 </structure>
 <calculation>
  <scstep>
   <time name="dav">    4.07    4.11</time>
   <time name="total">    4.28    4.33</time>
   <energy>
    <i name="alphaZ">    226.18789195 </i>
    <i name="ewald">  -7174.10772037 </i>
    <i name="hartreedc">  -1903.03655297 </i>
    <i name="XCdc">    215.96381375 </i>
    <i name="pawpsdc">   7015.85257893 </i>
    <i name="pawaedc">  -6664.70554900 </i>
    <i name="eentropy">     -0.00085753 </i>
    <i name="bandstr">    669.60832067 </i>
    <i name="atom">   8389.40297635 </i>
    <i name="e_fr_energy">    775.16490178 </i>
    <i name="e_wo_entrp">    775.16575930 </i>
    <i name="e_0_energy">    775.16533054 </i>
   </energy>
  </scstep>
  <scstep>
   <time name="dav">    4.82    4.87</time>
   <time name="total">    4.83    4.87</time>
   <energy>
    <i name="e_fr_energy">   -209.42909194 </i>
    <i name="e_wo_entrp">   -209.42909194 </i>
    <i name="e_0_energy">   -209.42909194 </i>
   </energy>
  </scstep>
  <scstep>
   <time name="dav">    4.66    4.71</time>
   <time name="total">    4.66    4.71</time>
   <energy>
    <i name="e_fr_energy">   -257.18273355 </i>
    <i name="e_wo_entrp">   -257.18273355 </i>
    <i name="e_0_energy">   -257.18273355 </i>
   </energy>
  </scstep>
  <scstep>
   <time name="dav">    4.58    4.63</time>
   <time name="total">    4.58    4.63</time>
   <energy>
    <i name="e_fr_energy">   -257.71086063 </i>
    <i name="e_wo_entrp">   -257.71086063 </i>
    <i name="e_0_energy">   -257.71086063 </i>
   </energy>
  </scstep>
  <scstep>
   <time name="dav">    4.58    4.62</time>
   <time name="total">    4.96    5.00</time>
   <energy>
    <i name="e_fr_energy">   -257.71984908 </i>
    <i name="e_wo_entrp">   -257.71984908 </i>
    <i name="e_0_energy">   -257.71984908 </i>
   </energy>
  </scstep>
  <scstep>
   <time name="dav">    4.49    4.53</time>
   <time name="total">    5.06    5.12</time>
   <energy>
    <i name="e_fr_energy">   -236.22886457 </i>
    <i name="e_wo_entrp">   -236.22886457 </i>
    <i name="e_0_energy">   -236.22886457 </i>
   </energy>
  </scstep>
  <scstep>
   <time name="dav">    4.62    4.66</time>
   <time name="total">    5.19    5.24</time>
   <energy>
    <i name="e_fr_energy">   -236.08668281 </i>
    <i name="e_wo_entrp">   -236.08668281 </i>
    <i name="e_0_energy">   -236.08668281 </i>
   </energy>
  </scstep>
  <scstep>
   <time name="dav">    4.52    4.57</time>
   <time name="total">    5.09    5.15</time>
   <energy>
    <i name="e_fr_energy">   -235.99044604 </i>
    <i name="e_wo_entrp">   -235.99044604 </i>
    <i name="e_0_energy">   -235.99044604 </i>
   </energy>
  </scstep>
  <scstep>
   <time name="dav">    4.57    4.59</time>
   <time name="total">    5.14    5.17</time>
   <energy>
    <i name="e_fr_energy">   -235.98983338 </i>
    <i name="e_wo_entrp">   -235.98983338 </i>
    <i name="e_0_energy">   -235.98983338 </i>
   </energy>
  </scstep>
  <scstep>
   <time name="dav">    4.60    4.62</time>
   <time name="total">    5.18    5.21</time>
   <energy>
    <i name="e_fr_energy">   -235.99098431 </i>
    <i name="e_wo_entrp">   -235.99098431 </i>
    <i name="e_0_energy">   -235.99098431 </i>
   </energy>
  </scstep>
  <scstep>
   <time name="dav">    4.58    4.61</time>
   <time name="total">    5.16    5.19</time>
   <energy>
    <i name="e_fr_energy">   -235.99083837 </i>
    <i name="e_wo_entrp">   -235.99083837 </i>
    <i name="e_0_energy">   -235.99083837 </i>
   </energy>
  </scstep>
  <scstep>
   <time name="dav">    4.56    4.59</time>
   <time name="total">    5.13    5.17</time>
   <energy>
    <i name="e_fr_energy">   -235.99083755 </i>
    <i name="e_wo_entrp">   -235.99083755 </i>
    <i name="e_0_energy">   -235.99083755 </i>
   </energy>
  </scstep>
  <scstep>
   <time name="dav">    4.69    4.71</time>
   <time name="total">    5.26    5.29</time>
   <energy>
    <i name="e_fr_energy">   -235.99083713 </i>
    <i name="e_wo_entrp">   -235.99083713 </i>
    <i name="e_0_energy">   -235.99083713 </i>
   </energy>
  </scstep>
  <scstep>
   <time name="dav">    4.61    4.66</time>
   <time name="total">    5.20    5.25</time>
   <energy>
    <i name="e_fr_energy">   -235.99083682 </i>
    <i name="e_wo_entrp">   -235.99083682 </i>
    <i name="e_0_energy">   -235.99083682 </i>
   </energy>
  </scstep>
  <scstep>
   <time name="dav">    4.58    4.62</time>
   <time name="total">    5.18    5.23</time>
   <energy>
    <i name="e_fr_energy">   -235.99083678 </i>
    <i name="e_wo_entrp">   -235.99083678 </i>
    <i name="e_0_energy">   -235.99083678 </i>
   </energy>
  </scstep>
  <scstep>
   <time name="dav">    3.40    3.42</time>
   <time name="total">    3.99    4.01</time>
   <energy>
    <i name="e_fr_energy">   -235.99083683 </i>
    <i name="e_wo_entrp">   -235.99083683 </i>
    <i name="e_0_energy">   -235.99083683 </i>
   </energy>
  </scstep>
  <scstep>
   <time name="dav">    3.22    3.26</time>
   <time name="total">    3.80    3.85</time>
   <energy>
    <i name="e_fr_energy">   -235.99083685 </i>
    <i name="e_wo_entrp">   -235.99083685 </i>
    <i name="e_0_energy">   -235.99083685 </i>
   </energy>
  </scstep>
  <scstep>
   <time name="dav">    3.12    3.16</time>
   <time name="total">    3.33    3.37</time>
   <energy>
    <i name="alphaZ">    226.18789195 </i>
    <i name="ewald">  -7174.10772037 </i>
    <i name="hartreedc">  -2206.18559984 </i>
    <i name="XCdc">    239.19448334 </i>
    <i name="pawpsdc">  12230.96216306 </i>
    <i name="pawaedc"> -11885.65780024 </i>
    <i name="eentropy">     -0.00000000 </i>
    <i name="bandstr">    -55.78723110 </i>
    <i name="atom">   8389.40297635 </i>
    <i name="e_fr_energy">   -235.99083685 </i>
    <i name="e_wo_entrp">   -235.99083685 </i>
    <i name="e_0_energy">   -235.99083685 </i>
   </energy>
  </scstep>
  <structure>
   <crystal>
    <varray name="basis" >
     <v>       4.77422635       0.00000000      -0.00000000 </v>
     <v>      -2.38711317       4.13460130       0.00000000 </v>
     <v>      -0.00000000       0.00000000      13.01135939 </v>
    </varray>
    <i name="volume">    256.83802076 </i>
    <varray name="rec_basis" >
     <v>       0.20945802       0.12093064       0.00000000 </v>
     <v>      -0.00000000       0.24186129      -0.00000000 </v>
     <v>       0.00000000       0.00000000       0.07685592 </v>
    </varray>
   </crystal>
   <varray name="positions" >
    <v>       0.33333333       0.66666667       0.01876037 </v>
    <v>       0.33333333       0.66666667       0.31457296 </v>
    <v>       0.00000000       0.00000000       0.14790629 </v>
    <v>       0.66666667       0.33333333       0.18542704 </v>
    <v>       0.00000000       0.00000000       0.35209371 </v>
    <v>       0.00000000       0.00000000       0.64790629 </v>
    <v>       0.66666667       0.33333333       0.48123963 </v>
    <v>       0.33333333       0.66666667       0.51876037 </v>
    <v>       0.66666667       0.33333333       0.68542704 </v>
    <v>       0.66666667       0.33333333       0.98123963 </v>
    <v>       0.33333333       0.66666667       0.81457296 </v>
    <v>       0.00000000       0.00000000       0.85209371 </v>
    <v>       0.30580865       0.00000000       0.25000000 </v>
    <v>       0.36085801       0.33333333       0.08333333 </v>
    <v>       0.00000000       0.30580865       0.25000000 </v>
    <v>       0.66666667       0.02752468       0.08333333 </v>
    <v>       0.69419135       0.69419135       0.25000000 </v>
    <v>       0.97247532       0.63914199       0.08333333 </v>
    <v>       0.97247532       0.33333333       0.58333333 </v>
    <v>       0.02752468       0.66666667       0.41666667 </v>
    <v>       0.66666667       0.63914199       0.58333333 </v>
    <v>       0.33333333       0.36085801       0.41666667 </v>
    <v>       0.36085801       0.02752468       0.58333333 </v>
    <v>       0.63914199       0.97247532       0.41666667 </v>
    <v>       0.63914199       0.66666667       0.91666667 </v>
    <v>       0.69419135       0.00000000       0.75000000 </v>
    <v>       0.33333333       0.97247532       0.91666667 </v>
    <v>       0.00000000       0.69419135       0.75000000 </v>
    <v>       0.02752468       0.36085801       0.91666667 </v>
    <v>       0.30580865       0.30580865       0.75000000 </v>
   </varray>
  </structure>
  <varray name="forces" >
   <v>       0.00000000       0.00000000      -0.00065980 </v>
   <v>       0.00000000       0.00000000       0.00065980 </v>
   <v>       0.00000000       0.00000000       0.00065980 </v>
   <v>       0.00000000       0.00000000      -0.00065980 </v>
   <v>       0.00000000       0.00000000      -0.00065980 </v>
   <v>       0.00000000       0.00000000       0.00065980 </v>
   <v>       0.00000000       0.00000000       0.00065980 </v>
   <v>       0.00000000       0.00000000      -0.00065980 </v>
   <v>       0.00000000       0.00000000      -0.00065980 </v>
   <v>       0.00000000       0.00000000       0.00065980 </v>
   <v>       0.00000000       0.00000000       0.00065980 </v>
   <v>       0.00000000       0.00000000      -0.00065980 </v>
   <v>      -0.00079062       0.00000000      -0.00000000 </v>
   <v>       0.00079062       0.00000000      -0.00000000 </v>
   <v>       0.00039531      -0.00068469      -0.00000000 </v>
   <v>      -0.00039531       0.00068469      -0.00000000 </v>
   <v>       0.00039531       0.00068469      -0.00000000 </v>
   <v>      -0.00039531      -0.00068469      -0.00000000 </v>
   <v>      -0.00079062       0.00000000      -0.00000000 </v>
   <v>       0.00079062       0.00000000      -0.00000000 </v>
   <v>       0.00039531      -0.00068469      -0.00000000 </v>
   <v>      -0.00039531       0.00068469      -0.00000000 </v>
   <v>       0.00039531       0.00068469      -0.00000000 </v>
   <v>      -0.00039531      -0.00068469      -0.00000000 </v>
   <v>      -0.00079062       0.00000000      -0.00000000 </v>
   <v>       0.00079062       0.00000000      -0.00000000 </v>
   <v>       0.00039531      -0.00068469      -0.00000000 </v>
   <v>      -0.00039531       0.00068469      -0.00000000 </v>
   <v>       0.00039531       0.00068469      -0.00000000 </v>
   <v>      -0.00039531      -0.00068469      -0.00000000 </v>
  </varray>
  <varray name="stress" >
   <v>      -0.10187290       0.00000000       0.00000000 </v>
   <v>       0.00000000      -0.10187290       0.00000000 </v>
   <v>       0.00000000      -0.00000000      -0.04626749 </v>
  </varray>
  <energy>
   <i name="e_fr_energy">   -235.99083685 </i>
   <i name="e_wo_entrp">   -235.99083685 </i>
   <i name="e_0_energy">     -0.00000000 </i>
  </energy>
  <scstep>
   <time name="total">    7.44    7.53</time>
   <energy>
    <i name="e_fr_energy">   -588.32796582 </i>
    <i name="e_wo_entrp">   -588.32796582 </i>
    <i name="e_0_energy">   -588.32796582 </i>
   </energy>
  </scstep>
  <scstep>
   <time name="total">    5.89    5.95</time>
   <energy>
    <i name="e_fr_energy">   -520.09603357 </i>
    <i name="e_wo_entrp">   -520.09603357 </i>
    <i name="e_0_energy">   -520.09603357 </i>
   </energy>
  </scstep>
  <scstep>
   <time name="total">    6.01    6.06</time>
   <energy>
    <i name="e_fr_energy">   -520.21238916 </i>
    <i name="e_wo_entrp">   -520.21238916 </i>
    <i name="e_0_energy">   -520.21238916 </i>
   </energy>
  </scstep>
  <scstep>
   <time name="total">    4.77    4.81</time>
   <energy>
    <i name="e_fr_energy">   -520.21626681 </i>
    <i name="e_wo_entrp">   -520.21626681 </i>
    <i name="e_0_energy">   -520.21626681 </i>
   </energy>
  </scstep>
  <scstep>
   <time name="total">    4.85    4.89</time>
   <energy>
    <i name="e_fr_energy">   -520.21634291 </i>
    <i name="e_wo_entrp">   -520.21634291 </i>
    <i name="e_0_energy">   -520.21634291 </i>
   </energy>
  </scstep>
  <scstep>
   <time name="total">    5.00    5.03</time>
   <energy>
    <i name="e_fr_energy">   -520.21635266 </i>
    <i name="e_wo_entrp">   -520.21635266 </i>
    <i name="e_0_energy">   -520.21635266 </i>
   </energy>
  </scstep>
  <scstep>
   <time name="total">    4.93    4.97</time>
   <energy>
    <i name="e_fr_energy">   -520.21635424 </i>
    <i name="e_wo_entrp">   -520.21635424 </i>
    <i name="e_0_energy">   -520.21635424 </i>
   </energy>
  </scstep>
  <scstep>
   <time name="total">    4.90    4.95</time>
   <energy>
    <i name="e_fr_energy">   -520.21635763 </i>
    <i name="e_wo_entrp">   -520.21635763 </i>
    <i name="e_0_energy">   -520.21635763 </i>
   </energy>
  </scstep>
  <scstep>
   <time name="total">    7.59    7.66</time>
   <energy>
    <i name="e_fr_energy">   -591.93191340 </i>
    <i name="e_wo_entrp">   -591.93191340 </i>
    <i name="e_0_energy">   -591.93191340 </i>
   </energy>
  </scstep>
  <scstep>
   <time name="total">    5.98    6.00</time>
   <energy>
    <i name="e_fr_energy">   -514.70597166 </i>
    <i name="e_wo_entrp">   -514.70597166 </i>
    <i name="e_0_energy">   -514.70597166 </i>
   </energy>
  </scstep>
  <scstep>
   <time name="total">    6.02    6.06</time>
   <energy>
    <i name="e_fr_energy">   -514.88738376 </i>
    <i name="e_wo_entrp">   -514.88738376 </i>
    <i name="e_0_energy">   -514.88738376 </i>
   </energy>
  </scstep>
  <scstep>
   <time name="total">    4.78    4.82</time>
   <energy>
    <i name="e_fr_energy">   -514.89185535 </i>
    <i name="e_wo_entrp">   -514.89185535 </i>
    <i name="e_0_energy">   -514.89185535 </i>
   </energy>
  </scstep>
  <scstep>
   <time name="total">    4.81    4.85</time>
   <energy>
    <i name="e_fr_energy">   -514.89213787 </i>
    <i name="e_wo_entrp">   -514.89213787 </i>
    <i name="e_0_energy">   -514.89213787 </i>
   </energy>
  </scstep>
  <scstep>
   <time name="total">    4.91    4.94</time>
   <energy>
    <i name="e_fr_energy">   -514.89222285 </i>
    <i name="e_wo_entrp">   -514.89222285 </i>
    <i name="e_0_energy">   -514.89222285 </i>
   </energy>
  </scstep>
  <scstep>
   <time name="total">    4.91    4.93</time>
   <energy>
    <i name="e_fr_energy">   -514.89237636 </i>
    <i name="e_wo_entrp">   -514.89237636 </i>
    <i name="e_0_energy">   -514.89237636 </i>
   </energy>
  </scstep>
  <scstep>
   <time name="total">    4.86    4.91</time>
   <energy>
    <i name="e_fr_energy">   -514.89217415 </i>
    <i name="e_wo_entrp">   -514.89217415 </i>
    <i name="e_0_energy">   -514.89217415 </i>
   </energy>
  </scstep>
  <scstep>
   <time name="total">    7.49    7.57</time>
   <energy>
    <i name="e_fr_energy">   -585.08873046 </i>
    <i name="e_wo_entrp">   -585.08873046 </i>
    <i name="e_0_energy">   -585.08873046 </i>
   </energy>
  </scstep>
  <scstep>
   <time name="total">    5.95    6.00</time>
   <energy>
    <i name="e_fr_energy">   -517.41933843 </i>
    <i name="e_wo_entrp">   -517.41933843 </i>
    <i name="e_0_energy">   -517.41933843 </i>
   </energy>
  </scstep>
  <scstep>
   <time name="total">    6.01    6.05</time>
   <energy>
    <i name="e_fr_energy">   -517.56197601 </i>
    <i name="e_wo_entrp">   -517.56197601 </i>
    <i name="e_0_energy">   -517.56197601 </i>
   </energy>
  </scstep>
  <scstep>
   <time name="total">    4.67    4.72</time>
   <energy>
    <i name="e_fr_energy">   -517.56531768 </i>
    <i name="e_wo_entrp">   -517.56531768 </i>
    <i name="e_0_energy">   -517.56531768 </i>
   </energy>
  </scstep>
  <scstep>
   <time name="total">    4.80    4.82</time>
   <energy>
    <i name="e_fr_energy">   -517.56536794 </i>
    <i name="e_wo_entrp">   -517.56536794 </i>
    <i name="e_0_energy">   -517.56536794 </i>
   </energy>
  </scstep>
  <scstep>
   <time name="total">    4.83    4.88</time>
   <energy>
    <i name="e_fr_energy">   -517.56537123 </i>
    <i name="e_wo_entrp">   -517.56537123 </i>
    <i name="e_0_energy">   -517.56537123 </i>
   </energy>
  </scstep>
  <scstep>
   <time name="total">    4.82    4.86</time>
   <energy>
    <i name="e_fr_energy">   -517.56537092 </i>
    <i name="e_wo_entrp">   -517.56537092 </i>
    <i name="e_0_energy">   -517.56537092 </i>
   </energy>
  </scstep>
  <scstep>
   <time name="total">    4.80    4.85</time>
   <energy>
    <i name="e_fr_energy">   -517.56537038 </i>
    <i name="e_wo_entrp">   -517.56537038 </i>
    <i name="e_0_energy">   -517.56537038 </i>
   </energy>
  </scstep>
  <scstep>
   <time name="total">    6.68    6.72</time>
   <energy>
    <i name="e_fr_energy">     -1.70681272 </i>
    <i name="e_wo_entrp">     -1.70681272 </i>
    <i name="e_0_energy">     -1.70681272 </i>
   </energy>
  </scstep>
  <scstep>
   <time name="total">    6.37    6.44</time>
   <energy>
    <i name="e_fr_energy">     -1.70840880 </i>
    <i name="e_wo_entrp">     -1.70840880 </i>
    <i name="e_0_energy">     -1.70840880 </i>
   </energy>
  </scstep>
  <scstep>
   <time name="total">    6.58    6.62</time>
   <energy>
    <i name="e_fr_energy">     -1.70874128 </i>
    <i name="e_wo_entrp">     -1.70874128 </i>
    <i name="e_0_energy">     -1.70874128 </i>
   </energy>
  </scstep>
  <scstep>
   <time name="total">    6.58    6.62</time>
   <energy>
    <i name="e_fr_energy">     -1.70874749 </i>
    <i name="e_wo_entrp">     -1.70874749 </i>
    <i name="e_0_energy">     -1.70874749 </i>
   </energy>
  </scstep>
  <scstep>
   <time name="total">    6.48    6.51</time>
   <energy>
    <i name="e_fr_energy">     -1.70874763 </i>
    <i name="e_wo_entrp">     -1.70874763 </i>
    <i name="e_0_energy">     -1.70874763 </i>
   </energy>
  </scstep>
  <scstep>
   <time name="total">    6.42    6.45</time>
   <energy>
    <i name="e_fr_energy">     -1.70874764 </i>
    <i name="e_wo_entrp">     -1.70874764 </i>
    <i name="e_0_energy">     -1.70874764 </i>
   </energy>
  </scstep>
  <scstep>
   <time name="total">    6.35    6.38</time>
   <energy>
    <i name="e_fr_energy">     -1.70874764 </i>
    <i name="e_wo_entrp">     -1.70874764 </i>
    <i name="e_0_energy">     -1.70874764 </i>
   </energy>
  </scstep>
  <scstep>
   <time name="total">    6.31    6.35</time>
   <energy>
    <i name="e_fr_energy">     -1.70874764 </i>
    <i name="e_wo_entrp">     -1.70874764 </i>
    <i name="e_0_energy">     -1.70874764 </i>
   </energy>
  </scstep>
  <scstep>
   <time name="total">    6.65    6.68</time>
   <energy>
    <i name="e_fr_energy">     -1.65877699 </i>
    <i name="e_wo_entrp">     -1.65877699 </i>
    <i name="e_0_energy">     -1.65877699 </i>
   </energy>
  </scstep>
  <scstep>
   <time name="total">    6.39    6.43</time>
   <energy>
    <i name="e_fr_energy">     -1.66144072 </i>
    <i name="e_wo_entrp">     -1.66144072 </i>
    <i name="e_0_energy">     -1.66144072 </i>
   </energy>
  </scstep>
  <scstep>
   <time name="total">    6.54    6.58</time>
   <energy>
    <i name="e_fr_energy">     -1.66178400 </i>
    <i name="e_wo_entrp">     -1.66178400 </i>
    <i name="e_0_energy">     -1.66178400 </i>
   </energy>
  </scstep>
  <scstep>
   <time name="total">    6.61    6.68</time>
   <energy>
    <i name="e_fr_energy">     -1.66179022 </i>
    <i name="e_wo_entrp">     -1.66179022 </i>
    <i name="e_0_energy">     -1.66179022 </i>
   </energy>
  </scstep>
  <scstep>
   <time name="total">    6.44    6.51</time>
   <energy>
    <i name="e_fr_energy">     -1.66179036 </i>
    <i name="e_wo_entrp">     -1.66179036 </i>
    <i name="e_0_energy">     -1.66179036 </i>
   </energy>
  </scstep>
  <scstep>
   <time name="total">    6.38    6.41</time>
   <energy>
    <i name="e_fr_energy">     -1.66179036 </i>
    <i name="e_wo_entrp">     -1.66179036 </i>
    <i name="e_0_energy">     -1.66179036 </i>
   </energy>
  </scstep>
  <scstep>
   <time name="total">    6.26    6.32</time>
   <energy>
    <i name="e_fr_energy">     -1.66179036 </i>
    <i name="e_wo_entrp">     -1.66179036 </i>
    <i name="e_0_energy">     -1.66179036 </i>
   </energy>
  </scstep>
  <scstep>
   <time name="total">    6.25    6.31</time>
   <energy>
    <i name="e_fr_energy">     -1.66179036 </i>
    <i name="e_wo_entrp">     -1.66179036 </i>
    <i name="e_0_energy">     -1.66179036 </i>
   </energy>
  </scstep>
  <scstep>
   <time name="total">    7.28    7.34</time>
   <energy>
    <i name="e_fr_energy">     -1.65139611 </i>
    <i name="e_wo_entrp">     -1.65139611 </i>
    <i name="e_0_energy">     -1.65139611 </i>
   </energy>
  </scstep>
  <scstep>
   <time name="total">    7.52    7.57</time>
   <energy>
    <i name="e_fr_energy">     -1.65131909 </i>
    <i name="e_wo_entrp">     -1.65131909 </i>
    <i name="e_0_energy">     -1.65131909 </i>
   </energy>
  </scstep>
  <scstep>
   <time name="total">    7.68    7.71</time>
   <energy>
    <i name="e_fr_energy">     -1.65166022 </i>
    <i name="e_wo_entrp">     -1.65166022 </i>
    <i name="e_0_energy">     -1.65166022 </i>
   </energy>
  </scstep>
  <scstep>
   <time name="total">    7.76    7.80</time>
   <energy>
    <i name="e_fr_energy">     -1.65166553 </i>
    <i name="e_wo_entrp">     -1.65166553 </i>
    <i name="e_0_energy">     -1.65166553 </i>
   </energy>
  </scstep>
  <scstep>
   <time name="total">    7.61    7.68</time>
   <energy>
    <i name="e_fr_energy">     -1.65166565 </i>
    <i name="e_wo_entrp">     -1.65166565 </i>
    <i name="e_0_energy">     -1.65166565 </i>
   </energy>
  </scstep>
  <scstep>
   <time name="total">    7.55    7.60</time>
   <energy>
    <i name="e_fr_energy">     -1.65166566 </i>
    <i name="e_wo_entrp">     -1.65166566 </i>
    <i name="e_0_energy">     -1.65166566 </i>
   </energy>
  </scstep>
  <scstep>
   <time name="total">    7.17    7.21</time>
   <energy>
    <i name="e_fr_energy">     -1.65166566 </i>
    <i name="e_wo_entrp">     -1.65166566 </i>
    <i name="e_0_energy">     -1.65166566 </i>
   </energy>
  </scstep>
  <scstep>
   <time name="total">    6.75    6.81</time>
   <energy>
    <i name="e_fr_energy">     -1.65166566 </i>
    <i name="e_wo_entrp">     -1.65166566 </i>
    <i name="e_0_energy">     -1.65166566 </i>
   </energy>
  </scstep>
  <varray name="epsilon_rpa" >
   <v>       3.37468082       0.00000000       0.00000000 </v>
   <v>       0.00000000       3.37468082       0.00000000 </v>
   <v>       0.00000000       0.00000000       3.32733424 </v>
  </varray>
  <kpoints>
   <generation param="Gamma">
    <v type="int" name="divisions">       6        6        2 </v>
    <v name="usershift">      0.00000000       0.00000000       0.50000000 </v>
    <v name="genvec1">      0.16666667       0.00000000       0.00000000 </v>
    <v name="genvec2">      0.00000000       0.16666667       0.00000000 </v>
    <v name="genvec3">      0.00000000       0.00000000       0.50000000 </v>
    <v name="shift">      0.00000000       0.00000000       0.50000000 </v>
   </generation>
   <varray name="kpointlist" >
    <v>       0.00000000       0.00000000       0.25000000 </v>
    <v>       0.16666667       0.00000000       0.25000000 </v>
    <v>       0.33333333       0.00000000       0.25000000 </v>
    <v>       0.50000000       0.00000000       0.25000000 </v>
    <v>      -0.33333333       0.00000000       0.25000000 </v>
    <v>      -0.16666667       0.00000000       0.25000000 </v>
    <v>       0.00000000       0.16666667       0.25000000 </v>
    <v>       0.16666667       0.16666667       0.25000000 </v>
    <v>       0.33333333       0.16666667       0.25000000 </v>
    <v>       0.50000000       0.16666667       0.25000000 </v>
    <v>      -0.33333333       0.16666667       0.25000000 </v>
    <v>       0.00000000       0.33333333       0.25000000 </v>
    <v>       0.16666667       0.33333333       0.25000000 </v>
    <v>       0.33333333       0.33333333       0.25000000 </v>
    <v>       0.50000000       0.33333333       0.25000000 </v>
    <v>       0.00000000       0.50000000       0.25000000 </v>
    <v>       0.16666667       0.50000000       0.25000000 </v>
    <v>       0.33333333       0.50000000       0.25000000 </v>
    <v>       0.00000000      -0.33333333       0.25000000 </v>
    <v>       0.16666667      -0.33333333       0.25000000 </v>
    <v>       0.00000000      -0.16666667       0.25000000 </v>
   </varray>
   <varray name="weights" >
    <v>       0.02777778 </v>
    <v>       0.05555556 </v>
    <v>       0.05555556 </v>
    <v>       0.05555556 </v>
    <v>       0.05555556 </v>
    <v>       0.05555556 </v>
    <v>       0.02777778 </v>
    <v>       0.05555556 </v>
    <v>       0.05555556 </v>
    <v>       0.05555556 </v>
    <v>       0.05555556 </v>
    <v>       0.02777778 </v>
    <v>       0.05555556 </v>
    <v>       0.05555556 </v>
    <v>       0.05555556 </v>
    <v>       0.02777778 </v>
    <v>       0.05555556 </v>
    <v>       0.05555556 </v>
    <v>       0.02777778 </v>
    <v>       0.05555556 </v>
    <v>       0.02777778 </v>
   </varray>
  </kpoints>
  <scstep>
   <time name="total">   13.48   13.58</time>
   <energy>
    <i name="e_fr_energy">     -1.68360959 </i>
    <i name="e_wo_entrp">     -1.68360959 </i>
    <i name="e_0_energy">     -1.68360959 </i>
   </energy>
  </scstep>
  <scstep>
   <time name="total">   14.55   14.66</time>
   <energy>
    <i name="e_fr_energy">     -1.68492193 </i>
    <i name="e_wo_entrp">     -1.68492193 </i>
    <i name="e_0_energy">     -1.68492193 </i>
   </energy>
  </scstep>
  <scstep>
   <time name="total">   14.35   14.48</time>
   <energy>
    <i name="e_fr_energy">     -1.65340291 </i>
    <i name="e_wo_entrp">     -1.65340291 </i>
    <i name="e_0_energy">     -1.65340291 </i>
   </energy>
  </scstep>
  <scstep>
   <time name="total">   14.74   14.85</time>
   <energy>
    <i name="e_fr_energy">     -1.71817863 </i>
    <i name="e_wo_entrp">     -1.71817863 </i>
    <i name="e_0_energy">     -1.71817863 </i>
   </energy>
  </scstep>
  <scstep>
   <time name="total">   14.69   14.78</time>
   <energy>
    <i name="e_fr_energy">     -1.72700637 </i>
    <i name="e_wo_entrp">     -1.72700637 </i>
    <i name="e_0_energy">     -1.72700637 </i>
   </energy>
  </scstep>
  <scstep>
   <time name="total">   14.38   14.51</time>
   <energy>
    <i name="e_fr_energy">     -1.72986990 </i>
    <i name="e_wo_entrp">     -1.72986990 </i>
    <i name="e_0_energy">     -1.72986990 </i>
   </energy>
  </scstep>
  <scstep>
   <time name="total">   15.12   15.24</time>
   <energy>
    <i name="e_fr_energy">     -1.73015746 </i>
    <i name="e_wo_entrp">     -1.73015746 </i>
    <i name="e_0_energy">     -1.73015746 </i>
   </energy>
  </scstep>
  <scstep>
   <time name="total">   14.85   14.95</time>
   <energy>
    <i name="e_fr_energy">     -1.73067952 </i>
    <i name="e_wo_entrp">     -1.73067952 </i>
    <i name="e_0_energy">     -1.73067952 </i>
   </energy>
  </scstep>
  <scstep>
   <time name="total">   15.17   15.28</time>
   <energy>
    <i name="e_fr_energy">     -1.73067270 </i>
    <i name="e_wo_entrp">     -1.73067270 </i>
    <i name="e_0_energy">     -1.73067270 </i>
   </energy>
  </scstep>
  <scstep>
   <time name="total">   15.12   15.20</time>
   <energy>
    <i name="e_fr_energy">     -1.73067829 </i>
    <i name="e_wo_entrp">     -1.73067829 </i>
    <i name="e_0_energy">     -1.73067829 </i>
   </energy>
  </scstep>
  <scstep>
   <time name="total">   14.89   14.97</time>
   <energy>
    <i name="e_fr_energy">     -1.73067729 </i>
    <i name="e_wo_entrp">     -1.73067729 </i>
    <i name="e_0_energy">     -1.73067729 </i>
   </energy>
  </scstep>
  <scstep>
   <time name="total">   14.77   14.84</time>
   <energy>
    <i name="e_fr_energy">     -1.73067734 </i>
    <i name="e_wo_entrp">     -1.73067734 </i>
    <i name="e_0_energy">     -1.73067734 </i>
   </energy>
  </scstep>
  <scstep>
   <time name="total">   14.72   14.83</time>
   <energy>
    <i name="e_fr_energy">     -1.73067733 </i>
    <i name="e_wo_entrp">     -1.73067733 </i>
    <i name="e_0_energy">     -1.73067733 </i>
   </energy>
  </scstep>
  <kpoints>
   <generation param="Gamma">
    <v type="int" name="divisions">       6        6        2 </v>
    <v name="usershift">      0.00000000       0.00000000       0.50000000 </v>
    <v name="genvec1">      0.16666667       0.00000000       0.00000000 </v>
    <v name="genvec2">      0.00000000       0.16666667       0.00000000 </v>
    <v name="genvec3">      0.00000000       0.00000000       0.50000000 </v>
    <v name="shift">      0.00000000       0.00000000       0.50000000 </v>
   </generation>
   <varray name="kpointlist" >
    <v>       0.00000000       0.00000000       0.25000000 </v>
    <v>       0.16666667       0.00000000       0.25000000 </v>
    <v>       0.33333333       0.00000000       0.25000000 </v>
    <v>       0.50000000       0.00000000       0.25000000 </v>
    <v>      -0.33333333       0.00000000       0.25000000 </v>
    <v>      -0.16666667       0.00000000       0.25000000 </v>
    <v>       0.00000000       0.16666667       0.25000000 </v>
    <v>       0.16666667       0.16666667       0.25000000 </v>
    <v>       0.33333333       0.16666667       0.25000000 </v>
    <v>       0.50000000       0.16666667       0.25000000 </v>
    <v>      -0.33333333       0.16666667       0.25000000 </v>
    <v>       0.00000000       0.33333333       0.25000000 </v>
    <v>       0.16666667       0.33333333       0.25000000 </v>
    <v>       0.33333333       0.33333333       0.25000000 </v>
    <v>       0.50000000       0.33333333       0.25000000 </v>
    <v>       0.00000000       0.50000000       0.25000000 </v>
    <v>       0.16666667       0.50000000       0.25000000 </v>
    <v>       0.33333333       0.50000000       0.25000000 </v>
    <v>       0.00000000      -0.33333333       0.25000000 </v>
    <v>       0.16666667      -0.33333333       0.25000000 </v>
    <v>       0.00000000      -0.16666667       0.25000000 </v>
   </varray>
   <varray name="weights" >
    <v>       0.02777778 </v>
    <v>       0.05555556 </v>
    <v>       0.05555556 </v>
    <v>       0.05555556 </v>
    <v>       0.05555556 </v>
    <v>       0.05555556 </v>
    <v>       0.02777778 </v>
    <v>       0.05555556 </v>
    <v>       0.05555556 </v>
    <v>       0.05555556 </v>
    <v>       0.05555556 </v>
    <v>       0.02777778 </v>
    <v>       0.05555556 </v>
    <v>       0.05555556 </v>
    <v>       0.05555556 </v>
    <v>       0.02777778 </v>
    <v>       0.05555556 </v>
    <v>       0.05555556 </v>
    <v>       0.02777778 </v>
    <v>       0.05555556 </v>
    <v>       0.02777778 </v>
   </varray>
  </kpoints>
  <scstep>
   <time name="total">   13.39   13.49</time>
   <energy>
    <i name="e_fr_energy">     -1.68352846 </i>
    <i name="e_wo_entrp">     -1.68352846 </i>
    <i name="e_0_energy">     -1.68352846 </i>
   </energy>
  </scstep>
  <scstep>
   <time name="total">   14.56   14.66</time>
   <energy>
    <i name="e_fr_energy">     -1.68492479 </i>
    <i name="e_wo_entrp">     -1.68492479 </i>
    <i name="e_0_energy">     -1.68492479 </i>
   </energy>
  </scstep>
  <scstep>
   <time name="total">   14.40   14.49</time>
   <energy>
    <i name="e_fr_energy">     -1.65347518 </i>
    <i name="e_wo_entrp">     -1.65347518 </i>
    <i name="e_0_energy">     -1.65347518 </i>
   </energy>
  </scstep>
  <scstep>
   <time name="total">   14.68   14.80</time>
   <energy>
    <i name="e_fr_energy">     -1.71819349 </i>
    <i name="e_wo_entrp">     -1.71819349 </i>
    <i name="e_0_energy">     -1.71819349 </i>
   </energy>
  </scstep>
  <scstep>
   <time name="total">   14.70   14.82</time>
   <energy>
    <i name="e_fr_energy">     -1.72700163 </i>
    <i name="e_wo_entrp">     -1.72700163 </i>
    <i name="e_0_energy">     -1.72700163 </i>
   </energy>
  </scstep>
  <scstep>
   <time name="total">   14.45   14.56</time>
   <energy>
    <i name="e_fr_energy">     -1.72987093 </i>
    <i name="e_wo_entrp">     -1.72987093 </i>
    <i name="e_0_energy">     -1.72987093 </i>
   </energy>
  </scstep>
  <scstep>
   <time name="total">   15.04   15.13</time>
   <energy>
    <i name="e_fr_energy">     -1.73016928 </i>
    <i name="e_wo_entrp">     -1.73016928 </i>
    <i name="e_0_energy">     -1.73016928 </i>
   </energy>
  </scstep>
  <scstep>
   <time name="total">   14.85   14.97</time>
   <energy>
    <i name="e_fr_energy">     -1.73068755 </i>
    <i name="e_wo_entrp">     -1.73068755 </i>
    <i name="e_0_energy">     -1.73068755 </i>
   </energy>
  </scstep>
  <scstep>
   <time name="total">   15.05   15.14</time>
   <energy>
    <i name="e_fr_energy">     -1.73068114 </i>
    <i name="e_wo_entrp">     -1.73068114 </i>
    <i name="e_0_energy">     -1.73068114 </i>
   </energy>
  </scstep>
  <scstep>
   <time name="total">   15.13   15.24</time>
   <energy>
    <i name="e_fr_energy">     -1.73068678 </i>
    <i name="e_wo_entrp">     -1.73068678 </i>
    <i name="e_0_energy">     -1.73068678 </i>
   </energy>
  </scstep>
  <scstep>
   <time name="total">   14.95   15.02</time>
   <energy>
    <i name="e_fr_energy">     -1.73068573 </i>
    <i name="e_wo_entrp">     -1.73068573 </i>
    <i name="e_0_energy">     -1.73068573 </i>
   </energy>
  </scstep>
  <scstep>
   <time name="total">   14.82   14.91</time>
   <energy>
    <i name="e_fr_energy">     -1.73068576 </i>
    <i name="e_wo_entrp">     -1.73068576 </i>
    <i name="e_0_energy">     -1.73068576 </i>
   </energy>
  </scstep>
  <scstep>
   <time name="total">   14.77   14.84</time>
   <energy>
    <i name="e_fr_energy">     -1.73068576 </i>
    <i name="e_wo_entrp">     -1.73068576 </i>
    <i name="e_0_energy">     -1.73068576 </i>
   </energy>
  </scstep>
  <kpoints>
   <generation param="Gamma">
    <v type="int" name="divisions">       6        6        2 </v>
    <v name="usershift">      0.00000000       0.00000000       0.50000000 </v>
    <v name="genvec1">      0.16666667       0.00000000       0.00000000 </v>
    <v name="genvec2">      0.00000000       0.16666667       0.00000000 </v>
    <v name="genvec3">      0.00000000       0.00000000       0.50000000 </v>
    <v name="shift">      0.00000000       0.00000000       0.50000000 </v>
   </generation>
   <varray name="kpointlist" >
    <v>       0.00000000       0.00000000       0.25000000 </v>
    <v>       0.16666667       0.00000000       0.25000000 </v>
    <v>       0.33333333       0.00000000       0.25000000 </v>
    <v>       0.50000000       0.00000000       0.25000000 </v>
    <v>      -0.33333333       0.00000000       0.25000000 </v>
    <v>      -0.16666667       0.00000000       0.25000000 </v>
    <v>       0.16666667       0.16666667       0.25000000 </v>
    <v>       0.33333333       0.16666667       0.25000000 </v>
    <v>       0.50000000       0.16666667       0.25000000 </v>
    <v>       0.33333333       0.33333333       0.25000000 </v>
   </varray>
   <varray name="weights" >
    <v>       0.02777778 </v>
    <v>       0.08333333 </v>
    <v>       0.08333333 </v>
    <v>       0.08333333 </v>
    <v>       0.08333333 </v>
    <v>       0.08333333 </v>
    <v>       0.16666667 </v>
    <v>       0.16666667 </v>
    <v>       0.16666667 </v>
    <v>       0.05555556 </v>
   </varray>
  </kpoints>
  <scstep>
   <time name="total">    6.61    6.68</time>
   <energy>
    <i name="e_fr_energy">     -1.65139611 </i>
    <i name="e_wo_entrp">     -1.65139611 </i>
    <i name="e_0_energy">     -1.65139611 </i>
   </energy>
  </scstep>
  <scstep>
   <time name="total">    7.32    7.39</time>
   <energy>
    <i name="e_fr_energy">     -1.65131909 </i>
    <i name="e_wo_entrp">     -1.65131909 </i>
    <i name="e_0_energy">     -1.65131909 </i>
   </energy>
  </scstep>
  <scstep>
   <time name="total">    7.52    7.59</time>
   <energy>
    <i name="e_fr_energy">     -1.62382647 </i>
    <i name="e_wo_entrp">     -1.62382647 </i>
    <i name="e_0_energy">     -1.62382647 </i>
   </energy>
  </scstep>
  <scstep>
   <time name="total">    7.66    7.73</time>
   <energy>
    <i name="e_fr_energy">     -1.69387504 </i>
    <i name="e_wo_entrp">     -1.69387504 </i>
    <i name="e_0_energy">     -1.69387504 </i>
   </energy>
  </scstep>
  <scstep>
   <time name="total">    7.65    7.72</time>
   <energy>
    <i name="e_fr_energy">     -1.69763829 </i>
    <i name="e_wo_entrp">     -1.69763829 </i>
    <i name="e_0_energy">     -1.69763829 </i>
   </energy>
  </scstep>
  <scstep>
   <time name="total">    7.83    7.90</time>
   <energy>
    <i name="e_fr_energy">     -1.69909883 </i>
    <i name="e_wo_entrp">     -1.69909883 </i>
    <i name="e_0_energy">     -1.69909883 </i>
   </energy>
  </scstep>
  <scstep>
   <time name="total">    7.52    7.59</time>
   <energy>
    <i name="e_fr_energy">     -1.69954251 </i>
    <i name="e_wo_entrp">     -1.69954251 </i>
    <i name="e_0_energy">     -1.69954251 </i>
   </energy>
  </scstep>
  <scstep>
   <time name="total">    7.57    7.65</time>
   <energy>
    <i name="e_fr_energy">     -1.69956931 </i>
    <i name="e_wo_entrp">     -1.69956931 </i>
    <i name="e_0_energy">     -1.69956931 </i>
   </energy>
  </scstep>
  <scstep>
   <time name="total">    7.63    7.69</time>
   <energy>
    <i name="e_fr_energy">     -1.69957478 </i>
    <i name="e_wo_entrp">     -1.69957478 </i>
    <i name="e_0_energy">     -1.69957478 </i>
   </energy>
  </scstep>
  <scstep>
   <time name="total">    7.24    7.32</time>
   <energy>
    <i name="e_fr_energy">     -1.69957225 </i>
    <i name="e_wo_entrp">     -1.69957225 </i>
    <i name="e_0_energy">     -1.69957225 </i>
   </energy>
  </scstep>
  <scstep>
   <time name="total">    7.46    7.51</time>
   <energy>
    <i name="e_fr_energy">     -1.69957295 </i>
    <i name="e_wo_entrp">     -1.69957295 </i>
    <i name="e_0_energy">     -1.69957295 </i>
   </energy>
  </scstep>
  <kpoints>
   <generation param="Gamma">
    <v type="int" name="divisions">       6        6        2 </v>
    <v name="usershift">      0.00000000       0.00000000       0.50000000 </v>
    <v name="genvec1">      0.16666667       0.00000000       0.00000000 </v>
    <v name="genvec2">      0.00000000       0.16666667       0.00000000 </v>
    <v name="genvec3">      0.00000000       0.00000000       0.50000000 </v>
    <v name="shift">      0.00000000       0.00000000       0.50000000 </v>
   </generation>
   <varray name="kpointlist" >
    <v>       0.00000000       0.00000000       0.25000000 </v>
    <v>       0.16666667       0.00000000       0.25000000 </v>
    <v>       0.33333333       0.00000000       0.25000000 </v>
    <v>       0.50000000       0.00000000       0.25000000 </v>
    <v>      -0.33333333       0.00000000       0.25000000 </v>
    <v>      -0.16666667       0.00000000       0.25000000 </v>
    <v>       0.16666667       0.16666667       0.25000000 </v>
    <v>       0.33333333       0.16666667       0.25000000 </v>
    <v>       0.50000000       0.16666667       0.25000000 </v>
    <v>       0.33333333       0.33333333       0.25000000 </v>
   </varray>
   <varray name="weights" >
    <v>       0.02777778 </v>
    <v>       0.08333333 </v>
    <v>       0.08333333 </v>
    <v>       0.08333333 </v>
    <v>       0.08333333 </v>
    <v>       0.08333333 </v>
    <v>       0.16666667 </v>
    <v>       0.16666667 </v>
    <v>       0.16666667 </v>
    <v>       0.05555556 </v>
   </varray>
  </kpoints>
  <varray name="epsilon" >
   <v>       3.27607426       0.00000000       0.00000000 </v>
   <v>       0.00000000       3.27607426      -0.00000000 </v>
   <v>       0.00000000       0.00000000       3.23683513 </v>
  </varray>
  <kpoints>
   <generation param="Gamma">
    <v type="int" name="divisions">       6        6        2 </v>
    <v name="usershift">      0.00000000       0.00000000       0.50000000 </v>
    <v name="genvec1">      0.16666667       0.00000000       0.00000000 </v>
    <v name="genvec2">      0.00000000       0.16666667       0.00000000 </v>
    <v name="genvec3">      0.00000000       0.00000000       0.50000000 </v>
    <v name="shift">      0.00000000       0.00000000       0.50000000 </v>
   </generation>
   <varray name="kpointlist" >
    <v>       0.00000000       0.00000000       0.25000000 </v>
    <v>       0.16666667       0.00000000       0.25000000 </v>
    <v>       0.33333333       0.00000000       0.25000000 </v>
    <v>       0.50000000       0.00000000       0.25000000 </v>
    <v>      -0.33333333       0.00000000       0.25000000 </v>
    <v>      -0.16666667       0.00000000       0.25000000 </v>
    <v>       0.16666667       0.16666667       0.25000000 </v>
    <v>       0.33333333       0.16666667       0.25000000 </v>
    <v>       0.50000000       0.16666667       0.25000000 </v>
    <v>       0.33333333       0.33333333       0.25000000 </v>
   </varray>
   <varray name="weights" >
    <v>       0.02777778 </v>
    <v>       0.08333333 </v>
    <v>       0.08333333 </v>
    <v>       0.08333333 </v>
    <v>       0.08333333 </v>
    <v>       0.08333333 </v>
    <v>       0.16666667 </v>
    <v>       0.16666667 </v>
    <v>       0.16666667 </v>
    <v>       0.05555556 </v>
   </varray>
  </kpoints>
  <array name="born_charges" >
   <dimension dim="1">ion</dimension>
   <set>
    <v>       2.95996774      -0.02949667      -0.00000047 </v>
    <v>       0.02948851       2.95996430      -0.00000098 </v>
    <v>      -0.00000000       0.00000000       2.92951967 </v>
   </set>
   <set>
    <v>       2.95996141      -0.02947968      -0.00000037 </v>
    <v>       0.02948870       2.95996311      -0.00000106 </v>
    <v>      -0.00000000       0.00000000       2.92951576 </v>
   </set>
   <set>
    <v>       2.95996774       0.02949667       0.00000047 </v>
    <v>      -0.02948870       2.95996311      -0.00000106 </v>
    <v>      -0.00000000       0.00000000       2.92951576 </v>
   </set>
   <set>
    <v>       2.95996141       0.02947968       0.00000037 </v>
    <v>      -0.02948851       2.95996430      -0.00000098 </v>
    <v>      -0.00000000       0.00000000       2.92951967 </v>
   </set>
   <set>
    <v>       2.95996774      -0.02949667      -0.00000047 </v>
    <v>       0.02948851       2.95996430      -0.00000098 </v>
    <v>      -0.00000000       0.00000000       2.92951967 </v>
   </set>
   <set>
    <v>       2.95996141      -0.02947968      -0.00000037 </v>
    <v>       0.02948870       2.95996311      -0.00000106 </v>
    <v>      -0.00000000       0.00000000       2.92951576 </v>
   </set>
   <set>
    <v>       2.95996774       0.02949667       0.00000047 </v>
    <v>      -0.02948870       2.95996311      -0.00000106 </v>
    <v>      -0.00000000       0.00000000       2.92951576 </v>
   </set>
   <set>
    <v>       2.95996141       0.02947968       0.00000037 </v>
    <v>      -0.02948851       2.95996430      -0.00000098 </v>
    <v>      -0.00000000       0.00000000       2.92951967 </v>
   </set>
   <set>
    <v>       2.95996774      -0.02949667      -0.00000047 </v>
    <v>       0.02948851       2.95996430      -0.00000098 </v>
    <v>      -0.00000000       0.00000000       2.92951967 </v>
   </set>
   <set>
    <v>       2.95996141      -0.02947968      -0.00000037 </v>
    <v>       0.02948870       2.95996311      -0.00000106 </v>
    <v>      -0.00000000       0.00000000       2.92951576 </v>
   </set>
   <set>
    <v>       2.95996774       0.02949667       0.00000047 </v>
    <v>      -0.02948870       2.95996311      -0.00000106 </v>
    <v>      -0.00000000       0.00000000       2.92951576 </v>
   </set>
   <set>
    <v>       2.95996141       0.02947968       0.00000037 </v>
    <v>      -0.02948851       2.95996430      -0.00000098 </v>
    <v>      -0.00000000       0.00000000       2.92951967 </v>
   </set>
   <set>
    <v>      -2.07316003       0.00000000       0.00000000 </v>
    <v>       0.00001524      -1.87342579       0.25818226 </v>
    <v>       0.00000182       0.35167360      -1.95301181 </v>
   </set>
   <set>
    <v>      -2.07322034       0.00000000       0.00000000 </v>
    <v>      -0.00001524      -1.87342579       0.25818226 </v>
    <v>      -0.00000182       0.35167360      -1.95301181 </v>
   </set>
   <set>
    <v>      -1.92339403       0.08646870      -0.22358655 </v>
    <v>       0.08650864      -2.02325435      -0.12908559 </v>
    <v>      -0.30455918      -0.17583522      -1.95301181 </v>
   </set>
   <set>
    <v>      -1.92334494       0.08653231      -0.22359719 </v>
    <v>       0.08649068      -2.02324728      -0.12909462 </v>
    <v>      -0.30455736      -0.17583838      -1.95301181 </v>
   </set>
   <set>
    <v>      -1.92339403      -0.08646870       0.22358655 </v>
    <v>      -0.08649068      -2.02324728      -0.12909462 </v>
    <v>       0.30455736      -0.17583838      -1.95301181 </v>
   </set>
   <set>
    <v>      -1.92334494      -0.08653231       0.22359719 </v>
    <v>      -0.08650864      -2.02325435      -0.12908559 </v>
    <v>       0.30455918      -0.17583522      -1.95301181 </v>
   </set>
   <set>
    <v>      -2.07316003       0.00000000       0.00000000 </v>
    <v>       0.00001524      -1.87342579       0.25818226 </v>
    <v>       0.00000182       0.35167360      -1.95301181 </v>
   </set>
   <set>
    <v>      -2.07322034       0.00000000       0.00000000 </v>
    <v>      -0.00001524      -1.87342579       0.25818226 </v>
    <v>      -0.00000182       0.35167360      -1.95301181 </v>
   </set>
   <set>
    <v>      -1.92339403       0.08646870      -0.22358655 </v>
    <v>       0.08650864      -2.02325435      -0.12908559 </v>
    <v>      -0.30455918      -0.17583522      -1.95301181 </v>
   </set>
   <set>
    <v>      -1.92334494       0.08653231      -0.22359719 </v>
    <v>       0.08649068      -2.02324728      -0.12909462 </v>
    <v>      -0.30455736      -0.17583838      -1.95301181 </v>
   </set>
   <set>
    <v>      -1.92339403      -0.08646870       0.22358655 </v>
    <v>      -0.08649068      -2.02324728      -0.12909462 </v>
    <v>       0.30455736      -0.17583838      -1.95301181 </v>
   </set>
   <set>
    <v>      -1.92334494      -0.08653231       0.22359719 </v>
    <v>      -0.08650864      -2.02325435      -0.12908559 </v>
    <v>       0.30455918      -0.17583522      -1.95301181 </v>
   </set>
   <set>
    <v>      -2.07316003       0.00000000       0.00000000 </v>
    <v>       0.00001524      -1.87342579       0.25818226 </v>
    <v>       0.00000182       0.35167360      -1.95301181 </v>
   </set>
   <set>
    <v>      -2.07322034       0.00000000       0.00000000 </v>
    <v>      -0.00001524      -1.87342579       0.25818226 </v>
    <v>      -0.00000182       0.35167360      -1.95301181 </v>
   </set>
   <set>
    <v>      -1.92339403       0.08646870      -0.22358655 </v>
    <v>       0.08650864      -2.02325435      -0.12908559 </v>
    <v>      -0.30455918      -0.17583522      -1.95301181 </v>
   </set>
   <set>
    <v>      -1.92334494       0.08653231      -0.22359719 </v>
    <v>       0.08649068      -2.02324728      -0.12909462 </v>
    <v>      -0.30455736      -0.17583838      -1.95301181 </v>
   </set>
   <set>
    <v>      -1.92339403      -0.08646870       0.22358655 </v>
    <v>      -0.08649068      -2.02324728      -0.12909462 </v>
    <v>       0.30455736      -0.17583838      -1.95301181 </v>
   </set>
   <set>
    <v>      -1.92334494      -0.08653231       0.22359719 </v>
    <v>      -0.08650864      -2.02325435      -0.12908559 </v>
    <v>       0.30455918      -0.17583522      -1.95301181 </v>
   </set>
  </array>
  <time name="totalsc">  924.66  931.64</time>
  <eigenvalues>
   <array>
    <dimension dim="1">band</dimension>
    <dimension dim="2">kpoint</dimension>
    <dimension dim="3">spin</dimension>
    <field>eigene</field>
    <field>occ</field>
    <set>
     <set comment="spin 1">
      <set comment="kpoint 1">
       <r>  -13.1687    1.0000 </r>
       <r>  -12.9282    1.0000 </r>
       <r>  -12.4778    1.0000 </r>
       <r>  -11.8884    1.0000 </r>
       <r>  -11.2937    1.0000 </r>
       <r>  -10.8985    1.0000 </r>
       <r>  -10.5594    1.0000 </r>
       <r>  -10.5594    1.0000 </r>
       <r>  -10.5264    1.0000 </r>
       <r>  -10.5264    1.0000 </r>
       <r>  -10.4624    1.0000 </r>
       <r>  -10.4624    1.0000 </r>
       <r>  -10.3782    1.0000 </r>
       <r>  -10.3782    1.0000 </r>
       <r>  -10.2965    1.0000 </r>
       <r>  -10.2965    1.0000 </r>
       <r>  -10.2459    1.0000 </r>
       <r>  -10.2459    1.0000 </r>
       <r>   -0.8779    1.0000 </r>
       <r>   -0.1615    1.0000 </r>
       <r>    0.0079    1.0000 </r>
       <r>    0.0805    1.0000 </r>
       <r>    0.1766    1.0000 </r>
       <r>    0.4003    1.0000 </r>
       <r>    0.4003    1.0000 </r>
       <r>    0.5061    1.0000 </r>
       <r>    0.6297    1.0000 </r>
       <r>    0.6297    1.0000 </r>
       <r>    0.9748    1.0000 </r>
       <r>    1.1438    1.0000 </r>
       <r>    1.1438    1.0000 </r>
       <r>    1.1572    1.0000 </r>
       <r>    1.4137    1.0000 </r>
       <r>    1.6469    1.0000 </r>
       <r>    1.6469    1.0000 </r>
       <r>    1.8233    1.0000 </r>
       <r>    1.8233    1.0000 </r>
       <r>    1.9889    1.0000 </r>
       <r>    1.9889    1.0000 </r>
       <r>    2.5201    1.0000 </r>
       <r>    2.6689    1.0000 </r>
       <r>    2.9903    1.0000 </r>
       <r>    3.0517    1.0000 </r>
       <r>    3.1569    1.0000 </r>
       <r>    3.4591    1.0000 </r>
       <r>    3.5968    1.0000 </r>
       <r>    3.5968    1.0000 </r>
       <r>    3.6044    1.0000 </r>
       <r>    3.6044    1.0000 </r>
       <r>    3.9458    1.0000 </r>
       <r>    4.3038    1.0000 </r>
       <r>    4.3038    1.0000 </r>
       <r>    4.3109    1.0000 </r>
       <r>    4.3109    1.0000 </r>
       <r>    4.7672    1.0000 </r>
       <r>    4.7672    1.0000 </r>
       <r>    4.7703    1.0000 </r>
       <r>    4.7703    1.0000 </r>
       <r>    4.8318    1.0000 </r>
       <r>    5.4482    1.0000 </r>
       <r>    5.4482    1.0000 </r>
       <r>    5.4664    1.0000 </r>
       <r>    5.4664    1.0000 </r>
       <r>    5.4974    1.0000 </r>
       <r>    5.4975    1.0000 </r>
       <r>    5.6701    1.0000 </r>
       <r>    5.6701    1.0000 </r>
       <r>    5.7978    1.0000 </r>
       <r>    5.8433    1.0000 </r>
       <r>    5.8433    1.0000 </r>
       <r>    5.9096    1.0000 </r>
       <r>    5.9096    1.0000 </r>
       <r>   12.1271    0.0000 </r>
       <r>   12.9760    0.0000 </r>
       <r>   14.0086    0.0000 </r>
       <r>   14.7254    0.0000 </r>
       <r>   14.8711    0.0000 </r>
       <r>   14.9232    0.0000 </r>
       <r>   16.3725    0.0000 </r>
       <r>   16.5028    0.0000 </r>
       <r>   16.5984    0.0000 </r>
       <r>   17.1133    0.0000 </r>
       <r>   17.3242    0.0000 </r>
       <r>   17.3242    0.0000 </r>
       <r>   17.3637    0.0000 </r>
       <r>   17.3991    0.0000 </r>
       <r>   17.6409    0.0000 </r>
       <r>   17.6409    0.0000 </r>
      </set>
      <set comment="kpoint 2">
       <r>  -13.0389    1.0000 </r>
       <r>  -12.8057    1.0000 </r>
       <r>  -12.3662    1.0000 </r>
       <r>  -11.8067    1.0000 </r>
       <r>  -11.2331    1.0000 </r>
       <r>  -10.9475    1.0000 </r>
       <r>  -10.7752    1.0000 </r>
       <r>  -10.7118    1.0000 </r>
       <r>  -10.6617    1.0000 </r>
       <r>  -10.5873    1.0000 </r>
       <r>  -10.5724    1.0000 </r>
       <r>  -10.5107    1.0000 </r>
       <r>  -10.4993    1.0000 </r>
       <r>  -10.3367    1.0000 </r>
       <r>  -10.3273    1.0000 </r>
       <r>  -10.2452    1.0000 </r>
       <r>  -10.2358    1.0000 </r>
       <r>  -10.2022    1.0000 </r>
       <r>   -0.7809    1.0000 </r>
       <r>   -0.2104    1.0000 </r>
       <r>   -0.1397    1.0000 </r>
       <r>   -0.1303    1.0000 </r>
       <r>    0.1417    1.0000 </r>
       <r>    0.1767    1.0000 </r>
       <r>    0.2272    1.0000 </r>
       <r>    0.4570    1.0000 </r>
       <r>    0.7960    1.0000 </r>
       <r>    0.9484    1.0000 </r>
       <r>    0.9561    1.0000 </r>
       <r>    0.9865    1.0000 </r>
       <r>    1.2401    1.0000 </r>
       <r>    1.2492    1.0000 </r>
       <r>    1.6080    1.0000 </r>
       <r>    1.6755    1.0000 </r>
       <r>    1.8233    1.0000 </r>
       <r>    1.8520    1.0000 </r>
       <r>    2.2446    1.0000 </r>
       <r>    2.3089    1.0000 </r>
       <r>    2.4476    1.0000 </r>
       <r>    2.7775    1.0000 </r>
       <r>    3.0632    1.0000 </r>
       <r>    3.1125    1.0000 </r>
       <r>    3.1949    1.0000 </r>
       <r>    3.2823    1.0000 </r>
       <r>    3.4125    1.0000 </r>
       <r>    3.5049    1.0000 </r>
       <r>    3.5435    1.0000 </r>
       <r>    3.6641    1.0000 </r>
       <r>    3.9281    1.0000 </r>
       <r>    3.9746    1.0000 </r>
       <r>    4.2487    1.0000 </r>
       <r>    4.2972    1.0000 </r>
       <r>    4.4311    1.0000 </r>
       <r>    4.4810    1.0000 </r>
       <r>    4.4916    1.0000 </r>
       <r>    4.5801    1.0000 </r>
       <r>    4.6197    1.0000 </r>
       <r>    4.7341    1.0000 </r>
       <r>    4.9889    1.0000 </r>
       <r>    5.0479    1.0000 </r>
       <r>    5.0737    1.0000 </r>
       <r>    5.2498    1.0000 </r>
       <r>    5.2785    1.0000 </r>
       <r>    5.2800    1.0000 </r>
       <r>    5.4445    1.0000 </r>
       <r>    5.4951    1.0000 </r>
       <r>    5.5737    1.0000 </r>
       <r>    5.5795    1.0000 </r>
       <r>    5.6288    1.0000 </r>
       <r>    5.7930    1.0000 </r>
       <r>    5.8573    1.0000 </r>
       <r>    5.8888    1.0000 </r>
       <r>   12.6880    0.0000 </r>
       <r>   13.4300    0.0000 </r>
       <r>   14.4069    0.0000 </r>
       <r>   15.1608    0.0000 </r>
       <r>   15.3737    0.0000 </r>
       <r>   15.4066    0.0000 </r>
       <r>   16.1519    0.0000 </r>
       <r>   16.3779    0.0000 </r>
       <r>   16.5320    0.0000 </r>
       <r>   16.7977    0.0000 </r>
       <r>   16.8475    0.0000 </r>
       <r>   16.8719    0.0000 </r>
       <r>   17.0473    0.0000 </r>
       <r>   17.1059    0.0000 </r>
       <r>   17.2093    0.0000 </r>
       <r>   17.6702    0.0000 </r>
      </set>
      <set comment="kpoint 3">
       <r>  -12.6677    1.0000 </r>
       <r>  -12.4673    1.0000 </r>
       <r>  -12.0503    1.0000 </r>
       <r>  -11.7202    1.0000 </r>
       <r>  -11.3568    1.0000 </r>
       <r>  -11.1388    1.0000 </r>
       <r>  -11.1077    1.0000 </r>
       <r>  -10.9282    1.0000 </r>
       <r>  -10.8392    1.0000 </r>
       <r>  -10.7584    1.0000 </r>
       <r>  -10.6471    1.0000 </r>
       <r>  -10.6393    1.0000 </r>
       <r>  -10.5576    1.0000 </r>
       <r>  -10.4248    1.0000 </r>
       <r>  -10.3469    1.0000 </r>
       <r>  -10.3455    1.0000 </r>
       <r>  -10.2207    1.0000 </r>
       <r>  -10.1930    1.0000 </r>
       <r>   -0.6755    1.0000 </r>
       <r>   -0.2853    1.0000 </r>
       <r>   -0.2508    1.0000 </r>
       <r>   -0.1517    1.0000 </r>
       <r>   -0.0238    1.0000 </r>
       <r>    0.0016    1.0000 </r>
       <r>    0.3665    1.0000 </r>
       <r>    0.6659    1.0000 </r>
       <r>    0.7948    1.0000 </r>
       <r>    0.8143    1.0000 </r>
       <r>    1.0882    1.0000 </r>
       <r>    1.1742    1.0000 </r>
       <r>    1.3831    1.0000 </r>
       <r>    1.5984    1.0000 </r>
       <r>    1.6518    1.0000 </r>
       <r>    2.0126    1.0000 </r>
       <r>    2.0236    1.0000 </r>
       <r>    2.1073    1.0000 </r>
       <r>    2.7370    1.0000 </r>
       <r>    2.8318    1.0000 </r>
       <r>    2.9470    1.0000 </r>
       <r>    3.0365    1.0000 </r>
       <r>    3.0672    1.0000 </r>
       <r>    3.1601    1.0000 </r>
       <r>    3.3566    1.0000 </r>
       <r>    3.5185    1.0000 </r>
       <r>    3.5246    1.0000 </r>
       <r>    3.6459    1.0000 </r>
       <r>    3.6651    1.0000 </r>
       <r>    3.7317    1.0000 </r>
       <r>    3.8151    1.0000 </r>
       <r>    4.1256    1.0000 </r>
       <r>    4.1279    1.0000 </r>
       <r>    4.1610    1.0000 </r>
       <r>    4.3129    1.0000 </r>
       <r>    4.3236    1.0000 </r>
       <r>    4.5081    1.0000 </r>
       <r>    4.5306    1.0000 </r>
       <r>    4.5385    1.0000 </r>
       <r>    4.5650    1.0000 </r>
       <r>    4.6481    1.0000 </r>
       <r>    4.8912    1.0000 </r>
       <r>    4.9254    1.0000 </r>
       <r>    4.9531    1.0000 </r>
       <r>    5.0907    1.0000 </r>
       <r>    5.1089    1.0000 </r>
       <r>    5.2755    1.0000 </r>
       <r>    5.3452    1.0000 </r>
       <r>    5.3594    1.0000 </r>
       <r>    5.4376    1.0000 </r>
       <r>    5.5411    1.0000 </r>
       <r>    5.6026    1.0000 </r>
       <r>    5.7547    1.0000 </r>
       <r>    5.7780    1.0000 </r>
       <r>   13.8879    0.0000 </r>
       <r>   14.4114    0.0000 </r>
       <r>   15.1989    0.0000 </r>
       <r>   15.4992    0.0000 </r>
       <r>   15.5659    0.0000 </r>
       <r>   15.8977    0.0000 </r>
       <r>   15.9379    0.0000 </r>
       <r>   15.9442    0.0000 </r>
       <r>   16.0636    0.0000 </r>
       <r>   16.2869    0.0000 </r>
       <r>   16.4256    0.0000 </r>
       <r>   16.6059    0.0000 </r>
       <r>   16.6525    0.0000 </r>
       <r>   16.6808    0.0000 </r>
       <r>   16.7009    0.0000 </r>
       <r>   16.9287    0.0000 </r>
      </set>
      <set comment="kpoint 4">
       <r>  -12.1440    1.0000 </r>
       <r>  -12.1188    1.0000 </r>
       <r>  -12.0543    1.0000 </r>
       <r>  -11.9280    1.0000 </r>
       <r>  -11.5971    1.0000 </r>
       <r>  -11.2911    1.0000 </r>
       <r>  -11.2244    1.0000 </r>
       <r>  -10.9703    1.0000 </r>
       <r>  -10.9250    1.0000 </r>
       <r>  -10.8221    1.0000 </r>
       <r>  -10.6760    1.0000 </r>
       <r>  -10.6176    1.0000 </r>
       <r>  -10.5806    1.0000 </r>
       <r>  -10.4845    1.0000 </r>
       <r>  -10.4182    1.0000 </r>
       <r>  -10.3553    1.0000 </r>
       <r>  -10.2764    1.0000 </r>
       <r>  -10.2018    1.0000 </r>
       <r>   -0.6014    1.0000 </r>
       <r>   -0.5080    1.0000 </r>
       <r>   -0.3344    1.0000 </r>
       <r>   -0.2674    1.0000 </r>
       <r>    0.2477    1.0000 </r>
       <r>    0.2866    1.0000 </r>
[...]
       <r>    0.7393    1.0000 </r>
       <r>    0.7393    1.0000 </r>
       <r>    1.5769    1.0000 </r>
       <r>    1.5769    1.0000 </r>
       <r>    1.5769    1.0000 </r>
       <r>    2.0600    1.0000 </r>
       <r>    2.0600    1.0000 </r>
       <r>    2.0600    1.0000 </r>
       <r>    2.1847    1.0000 </r>
       <r>    2.1847    1.0000 </r>
       <r>    2.1847    1.0000 </r>
       <r>    2.6797    1.0000 </r>
       <r>    2.6797    1.0000 </r>
       <r>    2.6797    1.0000 </r>
       <r>    3.6332    1.0000 </r>
       <r>    3.6332    1.0000 </r>
       <r>    3.6332    1.0000 </r>
       <r>    4.0272    1.0000 </r>
       <r>    4.0272    1.0000 </r>
       <r>    4.0272    1.0000 </r>
       <r>    4.1779    1.0000 </r>
       <r>    4.1779    1.0000 </r>
       <r>    4.1779    1.0000 </r>
       <r>    4.5102    1.0000 </r>
       <r>    4.5102    1.0000 </r>
       <r>    4.5102    1.0000 </r>
       <r>    4.6518    1.0000 </r>
       <r>    4.6518    1.0000 </r>
       <r>    4.6518    1.0000 </r>
       <r>    4.8320    1.0000 </r>
       <r>    4.8320    1.0000 </r>
       <r>    4.8320    1.0000 </r>
       <r>    5.0360    1.0000 </r>
       <r>    5.0360    1.0000 </r>
       <r>    5.0360    1.0000 </r>
       <r>    5.1602    1.0000 </r>
       <r>    5.1602    1.0000 </r>
       <r>    5.1602    1.0000 </r>
       <r>    5.5244    1.0000 </r>
       <r>    5.5244    1.0000 </r>
       <r>    5.5244    1.0000 </r>
       <r>    5.6610    1.0000 </r>
       <r>    5.6610    1.0000 </r>
       <r>    5.6610    1.0000 </r>
       <r>   15.1525    0.0000 </r>
       <r>   15.1525    0.0000 </r>
       <r>   15.1525    0.0000 </r>
       <r>   15.2321    0.0000 </r>
       <r>   15.2321    0.0000 </r>
       <r>   15.2321    0.0000 </r>
       <r>   15.4827    0.0000 </r>
       <r>   15.4827    0.0000 </r>
       <r>   15.4827    0.0000 </r>
       <r>   16.0915    0.0000 </r>
       <r>   16.0915    0.0000 </r>
       <r>   16.0915    0.0000 </r>
       <r>   16.1711    0.0000 </r>
       <r>   16.1711    0.0000 </r>
       <r>   16.1713    0.0000 </r>
       <r>   16.3783    0.0000 </r>
      </set>
     </set>
    </set>
   </array>
  </eigenvalues>
  <separator name="orbital magnetization" >
   <v name="MAGDIPOLOUT">      0.00000000      0.00000000      0.00000000</v>
  </separator>
  <dos>
   <i name="efermi">      6.01048404 </i>
   <total>
    <array>
     <dimension dim="1">gridpoints</dimension>
     <dimension dim="2">spin</dimension>
     <field>energy</field>
     <field>total</field>
     <field>integrated</field>
     <set>
      <set comment="spin 1">
       <r>   -14.7107     0.0000     0.0000 </r>
       <r>   -14.5976     0.0000     0.0000 </r>
       <r>   -14.4845     0.0000     0.0000 </r>
       <r>   -14.3715     0.0000     0.0000 </r>
       <r>   -14.2584     0.0000     0.0000 </r>
       <r>   -14.1453     0.0000     0.0000 </r>
       <r>   -14.0322     0.0000     0.0000 </r>
       <r>   -13.9192     0.0000     0.0000 </r>
       <r>   -13.8061     0.0000     0.0000 </r>
       <r>   -13.6930     0.0000     0.0000 </r>
       <r>   -13.5799     0.0000     0.0000 </r>
       <r>   -13.4669     0.0000     0.0000 </r>
       <r>   -13.3538     0.0000     0.0000 </r>
       <r>   -13.2407     0.0000     0.0000 </r>
       <r>   -13.1276     0.4913     0.0556 </r>
       <r>   -13.0145     2.9471     0.3888 </r>
       <r>   -12.9015     0.4913     0.4444 </r>
       <r>   -12.7884     4.5723     0.9615 </r>
       <r>   -12.6753     0.6911     1.1893 </r>
       <r>   -12.5622     2.5121     1.7285 </r>
       <r>   -12.4492     2.7683     2.0908 </r>
       <r>   -12.3361     5.1137     2.7449 </r>
       <r>   -12.2230     0.0000     3.1667 </r>
       <r>   -12.1099    11.7712     4.4977 </r>
       <r>   -11.9969     2.9479     5.0000 </r>
       <r>   -11.8838     4.7877     5.5414 </r>
       <r>   -11.7707     9.1327     6.9216 </r>
       <r>   -11.6576     3.7422     7.9787 </r>
       <r>   -11.5446     5.2001     8.6436 </r>
       <r>   -11.4315     2.9479     9.2222 </r>
       <r>   -11.3184     7.3699    10.0556 </r>
       <r>   -11.2053    10.3122    11.4438 </r>
       <r>   -11.0923    11.7738    12.7758 </r>
       <r>   -10.9792     5.9094    14.1127 </r>
       <r>   -10.8661     9.1738    16.1484 </r>
       <r>   -10.7530    16.6769    19.0524 </r>
       <r>   -10.6400    17.7107    21.6693 </r>
       <r>   -10.5269    22.9185    24.7582 </r>
       <r>   -10.4138    26.9388    28.4350 </r>
       <r>   -10.3007    20.3906    30.9724 </r>
       <r>   -10.1876    32.2087    35.6976 </r>
       <r>   -10.0746     0.0000    36.0000 </r>
       <r>    -9.9615     0.0000    36.0000 </r>
       <r>    -9.8484     0.0000    36.0000 </r>
       <r>    -9.7353     0.0000    36.0000 </r>
       <r>    -9.6223     0.0000    36.0000 </r>
       <r>    -9.5092     0.0000    36.0000 </r>
       <r>    -9.3961     0.0000    36.0000 </r>
       <r>    -9.2830     0.0000    36.0000 </r>
       <r>    -9.1700     0.0000    36.0000 </r>
       <r>    -9.0569     0.0000    36.0000 </r>
       <r>    -8.9438     0.0000    36.0000 </r>
       <r>    -8.8307     0.0000    36.0000 </r>
       <r>    -8.7177     0.0000    36.0000 </r>
       <r>    -8.6046     0.0000    36.0000 </r>
       <r>    -8.4915     0.0000    36.0000 </r>
       <r>    -8.3784     0.0000    36.0000 </r>
       <r>    -8.2654     0.0000    36.0000 </r>
       <r>    -8.1523     0.0000    36.0000 </r>
       <r>    -8.0392     0.0000    36.0000 </r>
       <r>    -7.9261     0.0000    36.0000 </r>
       <r>    -7.8131     0.0000    36.0000 </r>
       <r>    -7.7000     0.0000    36.0000 </r>
       <r>    -7.5869     0.0000    36.0000 </r>
       <r>    -7.4738     0.0000    36.0000 </r>
       <r>    -7.3607     0.0000    36.0000 </r>
       <r>    -7.2477     0.0000    36.0000 </r>
       <r>    -7.1346     0.0000    36.0000 </r>
       <r>    -7.0215     0.0000    36.0000 </r>
       <r>    -6.9084     0.0000    36.0000 </r>
       <r>    -6.7954     0.0000    36.0000 </r>
       <r>    -6.6823     0.0000    36.0000 </r>
       <r>    -6.5692     0.0000    36.0000 </r>
       <r>    -6.4561     0.0000    36.0000 </r>
       <r>    -6.3431     0.0000    36.0000 </r>
       <r>    -6.2300     0.0000    36.0000 </r>
       <r>    -6.1169     0.0000    36.0000 </r>
       <r>    -6.0038     0.0000    36.0000 </r>
       <r>    -5.8908     0.0000    36.0000 </r>
       <r>    -5.7777     0.0000    36.0000 </r>
       <r>    -5.6646     0.0000    36.0000 </r>
       <r>    -5.5515     0.0000    36.0000 </r>
       <r>    -5.4385     0.0000    36.0000 </r>
       <r>    -5.3254     0.0000    36.0000 </r>
       <r>    -5.2123     0.0000    36.0000 </r>
       <r>    -5.0992     0.0000    36.0000 </r>
       <r>    -4.9862     0.0000    36.0000 </r>
       <r>    -4.8731     0.0000    36.0000 </r>
       <r>    -4.7600     0.0000    36.0000 </r>
       <r>    -4.6469     0.0000    36.0000 </r>
       <r>    -4.5338     0.0000    36.0000 </r>
       <r>    -4.4208     0.0000    36.0000 </r>
       <r>    -4.3077     0.0000    36.0000 </r>
       <r>    -4.1946     0.0000    36.0000 </r>
       <r>    -4.0815     0.0000    36.0000 </r>
       <r>    -3.9685     0.0000    36.0000 </r>
       <r>    -3.8554     0.0000    36.0000 </r>
       <r>    -3.7423     0.0000    36.0000 </r>
       <r>    -3.6292     0.0000    36.0000 </r>
       <r>    -3.5162     0.0000    36.0000 </r>
       <r>    -3.4031     0.0000    36.0000 </r>
       <r>    -3.2900     0.0000    36.0000 </r>
       <r>    -3.1769     0.0000    36.0000 </r>
       <r>    -3.0639     0.0000    36.0000 </r>
       <r>    -2.9508     0.0000    36.0000 </r>
       <r>    -2.8377     0.0000    36.0000 </r>
       <r>    -2.7246     0.0000    36.0000 </r>
       <r>    -2.6116     0.0000    36.0000 </r>
       <r>    -2.4985     0.0000    36.0000 </r>
       <r>    -2.3854     0.0000    36.0000 </r>
       <r>    -2.2723     0.0000    36.0000 </r>
       <r>    -2.1593     0.0000    36.0000 </r>
       <r>    -2.0462     0.0000    36.0000 </r>
       <r>    -1.9331     0.0000    36.0000 </r>
       <r>    -1.8200     0.0000    36.0000 </r>
       <r>    -1.7070     0.0000    36.0000 </r>
       <r>    -1.5939     0.0000    36.0000 </r>
       <r>    -1.4808     0.0000    36.0000 </r>
       <r>    -1.3677     0.0000    36.0000 </r>
       <r>    -1.2546     0.0000    36.0000 </r>
       <r>    -1.1416     0.0000    36.0000 </r>
       <r>    -1.0285     0.0000    36.0000 </r>
       <r>    -0.9154     0.0000    36.0000 </r>
       <r>    -0.8023     0.4931    36.0558 </r>
       <r>    -0.6893     1.5121    36.3932 </r>
       <r>    -0.5762     2.6766    36.8582 </r>
       <r>    -0.4631     1.5441    37.3968 </r>
       <r>    -0.3500     2.7382    38.0318 </r>
       <r>    -0.2370     9.1727    39.9261 </r>
       <r>    -0.1239    12.9690    42.1887 </r>
       <r>    -0.0108     7.4302    43.2846 </r>
       <r>     0.1023    10.8678    45.5622 </r>
       <r>     0.2153    10.8141    47.2784 </r>
       <r>     0.3284     9.5777    49.1941 </r>
       <r>     0.4415     6.2953    49.9896 </r>
       <r>     0.5546     0.9487    50.8295 </r>
       <r>     0.6676    12.8103    52.5597 </r>
       <r>     0.7807     3.2834    53.4268 </r>
       <r>     0.8938    11.1829    55.3201 </r>
       <r>     1.0069     9.3434    56.7787 </r>
       <r>     1.1199     6.6645    57.8647 </r>
       <r>     1.2330     8.2000    59.6494 </r>
       <r>     1.3461     2.9479    60.6111 </r>
       <r>     1.4592     5.4256    61.5580 </r>
       <r>     1.5723     3.7021    62.4186 </r>
       <r>     1.6853     8.3309    63.9420 </r>
       <r>     1.7984    10.9065    65.8444 </r>
       <r>     1.9115     8.6300    68.3647 </r>
       <r>     2.0246     9.0352    69.7439 </r>
       <r>     2.1376    14.7891    71.8390 </r>
       <r>     2.2507     5.6107    72.8011 </r>
       <r>     2.3638     7.0083    73.6258 </r>
       <r>     2.4769     6.9951    74.6243 </r>
       <r>     2.5899     5.8968    76.1668 </r>
       <r>     2.7030     8.9067    77.5627 </r>
       <r>     2.8161     6.9179    78.3934 </r>
       <r>     2.9292     8.7561    80.1012 </r>
       <r>     3.0422    11.6275    81.9259 </r>
       <r>     3.1553     3.5212    82.7871 </r>
       <r>     3.2684     7.4058    83.9485 </r>
       <r>     3.3815     3.2221    84.6421 </r>
       <r>     3.4945    13.8621    86.6786 </r>
       <r>     3.6076    21.0043    89.5417 </r>
       <r>     3.7207    22.2046    93.0664 </r>
       <r>     3.8338    11.4861    94.8544 </r>
       <r>     3.9468     6.4244    96.4487 </r>
       <r>     4.0599    17.6792    98.9435 </r>
       <r>     4.1730    11.1181   100.8683 </r>
       <r>     4.2861    12.0168   103.3033 </r>
       <r>     4.3992    16.2261   106.3348 </r>
       <r>     4.5122    10.7603   108.5501 </r>
       <r>     4.6253    24.1215   112.5609 </r>
       <r>     4.7384    16.2018   116.1654 </r>
       <r>     4.8515    15.1948   119.2737 </r>
       <r>     4.9645    14.6614   121.2690 </r>
       <r>     5.0776    13.8193   124.0071 </r>
       <r>     5.1907    21.1857   126.8400 </r>
       <r>     5.3038    13.4184   129.7951 </r>
       <r>     5.4168    12.2832   132.5000 </r>
       <r>     5.5299    13.9674   135.4683 </r>
       <r>     5.6430    19.0383   138.5972 </r>
       <r>     5.7561    17.2270   141.8368 </r>
       <r>     5.8691     7.4886   143.4023 </r>
       <r>     5.9822     2.4566   144.0000 </r>
       <r>     6.0953     0.0000   144.0000 </r>
       <r>     6.2084     0.0000   144.0000 </r>
       <r>     6.3214     0.0000   144.0000 </r>
       <r>     6.4345     0.0000   144.0000 </r>
       <r>     6.5476     0.0000   144.0000 </r>
       <r>     6.6607     0.0000   144.0000 </r>
       <r>     6.7737     0.0000   144.0000 </r>
       <r>     6.8868     0.0000   144.0000 </r>
       <r>     6.9999     0.0000   144.0000 </r>
       <r>     7.1130     0.0000   144.0000 </r>
       <r>     7.2261     0.0000   144.0000 </r>
       <r>     7.3391     0.0000   144.0000 </r>
       <r>     7.4522     0.0000   144.0000 </r>
       <r>     7.5653     0.0000   144.0000 </r>
       <r>     7.6784     0.0000   144.0000 </r>
       <r>     7.7914     0.0000   144.0000 </r>
       <r>     7.9045     0.0000   144.0000 </r>
       <r>     8.0176     0.0000   144.0000 </r>
       <r>     8.1307     0.0000   144.0000 </r>
       <r>     8.2437     0.0000   144.0000 </r>
       <r>     8.3568     0.0000   144.0000 </r>
       <r>     8.4699     0.0000   144.0000 </r>
       <r>     8.5830     0.0000   144.0000 </r>
       <r>     8.6960     0.0000   144.0000 </r>
       <r>     8.8091     0.0000   144.0000 </r>
       <r>     8.9222     0.0000   144.0000 </r>
       <r>     9.0353     0.0000   144.0000 </r>
       <r>     9.1483     0.0000   144.0000 </r>
       <r>     9.2614     0.0000   144.0000 </r>
       <r>     9.3745     0.0000   144.0000 </r>
       <r>     9.4876     0.0000   144.0000 </r>
       <r>     9.6006     0.0000   144.0000 </r>
       <r>     9.7137     0.0000   144.0000 </r>
       <r>     9.8268     0.0000   144.0000 </r>
       <r>     9.9399     0.0000   144.0000 </r>
       <r>    10.0529     0.0000   144.0000 </r>
       <r>    10.1660     0.0000   144.0000 </r>
       <r>    10.2791     0.0000   144.0000 </r>
       <r>    10.3922     0.0000   144.0000 </r>
       <r>    10.5053     0.0000   144.0000 </r>
       <r>    10.6183     0.0000   144.0000 </r>
       <r>    10.7314     0.0000   144.0000 </r>
       <r>    10.8445     0.0000   144.0000 </r>
       <r>    10.9576     0.0000   144.0000 </r>
       <r>    11.0706     0.0000   144.0000 </r>
       <r>    11.1837     0.0000   144.0000 </r>
       <r>    11.2968     0.0000   144.0000 </r>
       <r>    11.4099     0.0000   144.0000 </r>
       <r>    11.5229     0.0000   144.0000 </r>
       <r>    11.6360     0.0000   144.0000 </r>
       <r>    11.7491     0.0000   144.0000 </r>
       <r>    11.8622     0.0000   144.0000 </r>
       <r>    11.9752     0.0000   144.0000 </r>
       <r>    12.0883     0.0000   144.0000 </r>
       <r>    12.2014     0.4913   144.0556 </r>
       <r>    12.3145     0.0000   144.0556 </r>
       <r>    12.4275     0.0000   144.0556 </r>
       <r>    12.5406     0.0000   144.0556 </r>
       <r>    12.6537     0.0000   144.0556 </r>
       <r>    12.7668     2.9479   144.3889 </r>
       <r>    12.8798     0.0000   144.3889 </r>
       <r>    12.9929     0.4872   144.4440 </r>
       <r>    13.1060     0.0000   144.4444 </r>
       <r>    13.2191     0.0000   144.4444 </r>
       <r>    13.3322     0.0000   144.4444 </r>
       <r>    13.4452     2.9104   144.7735 </r>
       <r>    13.5583     2.9479   145.1111 </r>
       <r>    13.6714     0.0000   145.1111 </r>
       <r>    13.7845     0.0000   145.1111 </r>
       <r>    13.8975     1.9809   145.3351 </r>
       <r>    14.0106     0.3007   145.4784 </r>
       <r>    14.1237     2.9422   145.8327 </r>
       <r>    14.2368     0.0000   145.8333 </r>
       <r>    14.3498     0.0000   145.8333 </r>
       <r>    14.4629     5.8957   146.5000 </r>
       <r>    14.5760     0.0000   146.5000 </r>
       <r>    14.6891     5.8957   147.1667 </r>
       <r>    14.8021     0.4913   147.2222 </r>
       <r>    14.9152     3.7750   147.6491 </r>
       <r>    15.0283     3.1410   148.3552 </r>
       <r>    15.1414     1.6966   148.6918 </r>
       <r>    15.2544    10.2717   150.4948 </r>
       <r>    15.3675    10.4177   152.0113 </r>
       <r>    15.4806     5.7518   153.1504 </r>
       <r>    15.5937     8.3197   155.2741 </r>
       <r>    15.7067     3.7593   156.0918 </r>
       <r>    15.8198     7.3745   158.3339 </r>
       <r>    15.9329     7.3875   159.3354 </r>
       <r>    16.0460     6.1784   160.8653 </r>
       <r>    16.1591    18.0470   163.8740 </r>
       <r>    16.2721     0.3133   164.3688 </r>
       <r>    16.3852     9.2758   165.8822 </r>
       <r>    16.4983    10.6032   167.8656 </r>
       <r>    16.6114    10.0669   169.3605 </r>
       <r>    16.7244     5.8834   170.7764 </r>
       <r>    16.8375     6.0114   171.9575 </r>
       <r>    16.9506     7.3693   172.9444 </r>
       <r>    17.0637     5.8804   173.7760 </r>
       <r>    17.1767     5.1393   174.3589 </r>
       <r>    17.2898     0.4057   174.7125 </r>
       <r>    17.4029     4.7682   175.3725 </r>
       <r>    17.5160     2.9466   175.7221 </r>
       <r>    17.6290     0.0454   175.7274 </r>
       <r>    17.7421     1.4739   176.0000 </r>
       <r>    17.8552     0.0000   176.0000 </r>
       <r>    17.9683     0.0000   176.0000 </r>
       <r>    18.0813     0.0000   176.0000 </r>
       <r>    18.1944     0.0000   176.0000 </r>
       <r>    18.3075     0.0000   176.0000 </r>
       <r>    18.4206     0.0000   176.0000 </r>
       <r>    18.5336     0.0000   176.0000 </r>
       <r>    18.6467     0.0000   176.0000 </r>
       <r>    18.7598     0.0000   176.0000 </r>
       <r>    18.8729     0.0000   176.0000 </r>
       <r>    18.9860     0.0000   176.0000 </r>
       <r>    19.0990     0.0000   176.0000 </r>
       <r>    19.2121     0.0000   176.0000 </r>
      </set>
     </set>
    </array>
   </total>
  </dos>
 </calculation>
 <structure name="finalpos" >
  <crystal>
   <varray name="basis" >
    <v>       4.77422635       0.00000000      -0.00000000 </v>
    <v>      -2.38711317       4.13460130       0.00000000 </v>
    <v>      -0.00000000       0.00000000      13.01135939 </v>
   </varray>
   <i name="volume">    256.83802076 </i>
   <varray name="rec_basis" >
    <v>       0.20945802       0.12093064       0.00000000 </v>
    <v>      -0.00000000       0.24186129      -0.00000000 </v>
    <v>       0.00000000       0.00000000       0.07685592 </v>
   </varray>
  </crystal>
  <varray name="positions" >
   <v>       0.33333333       0.66666667       0.01876037 </v>
   <v>       0.33333333       0.66666667       0.31457296 </v>
   <v>       0.00000000       0.00000000       0.14790629 </v>
   <v>       0.66666667       0.33333333       0.18542704 </v>
   <v>       0.00000000       0.00000000       0.35209371 </v>
   <v>       0.00000000       0.00000000       0.64790629 </v>
   <v>       0.66666667       0.33333333       0.48123963 </v>
   <v>       0.33333333       0.66666667       0.51876037 </v>
   <v>       0.66666667       0.33333333       0.68542704 </v>
   <v>       0.66666667       0.33333333       0.98123963 </v>
   <v>       0.33333333       0.66666667       0.81457296 </v>
   <v>       0.00000000       0.00000000       0.85209371 </v>
   <v>       0.30580865       0.00000000       0.25000000 </v>
   <v>       0.36085801       0.33333333       0.08333333 </v>
   <v>       0.00000000       0.30580865       0.25000000 </v>
   <v>       0.66666667       0.02752468       0.08333333 </v>
   <v>       0.69419135       0.69419135       0.25000000 </v>
   <v>       0.97247532       0.63914199       0.08333333 </v>
   <v>       0.97247532       0.33333333       0.58333333 </v>
   <v>       0.02752468       0.66666667       0.41666667 </v>
   <v>       0.66666667       0.63914199       0.58333333 </v>
   <v>       0.33333333       0.36085801       0.41666667 </v>
   <v>       0.36085801       0.02752468       0.58333333 </v>
   <v>       0.63914199       0.97247532       0.41666667 </v>
   <v>       0.63914199       0.66666667       0.91666667 </v>
   <v>       0.69419135       0.00000000       0.75000000 </v>
   <v>       0.33333333       0.97247532       0.91666667 </v>
   <v>       0.00000000       0.69419135       0.75000000 </v>
   <v>       0.02752468       0.36085801       0.91666667 </v>
   <v>       0.30580865       0.30580865       0.75000000 </v>
  </varray>
 </structure>
</modeling>
