  16  16   0****
  0.8853054E+01  0.5519466E-09  0.5519466E-09  0.4649636E-09  0.4000000E-15
   1.0000000000000000E-004
  CAR 
 unknown system                          
     14.04307858    -23.11701305  301     -0.91385830      1.00000000
    -23.117  0.0000E+00  0.0000E+00
    -22.993  0.0000E+00  0.0000E+00
    -22.869  0.0000E+00  0.0000E+00
    -22.745  0.0000E+00  0.0000E+00
    -22.622  0.0000E+00  0.0000E+00
    -22.498  0.0000E+00  0.0000E+00
    -22.374  0.0000E+00  0.0000E+00
    -22.250  0.0000E+00  0.0000E+00
    -22.126  0.0000E+00  0.0000E+00
    -22.002  0.0000E+00  0.0000E+00
    -21.878  0.0000E+00  0.0000E+00
    -21.754  0.0000E+00  0.0000E+00
    -21.631  0.0000E+00  0.0000E+00
    -21.507  0.0000E+00  0.0000E+00
    -21.383  0.4885E+01  0.1118E+00
    -21.259  0.2344E+02  0.1928E+01
    -21.135  0.3970E+01  0.3980E+01
    -21.011  0.0000E+00  0.4000E+01
    -20.887  0.0000E+00  0.4000E+01
    -20.764  0.0000E+00  0.4000E+01
    -20.640  0.0000E+00  0.4000E+01
    -20.516  0.0000E+00  0.4000E+01
    -20.392  0.0000E+00  0.4000E+01
    -20.268  0.0000E+00  0.4000E+01
    -20.144  0.0000E+00  0.4000E+01
    -20.020  0.0000E+00  0.4000E+01
    -19.896  0.0000E+00  0.4000E+01
    -19.773  0.0000E+00  0.4000E+01
    -19.649  0.0000E+00  0.4000E+01
    -19.525  0.0000E+00  0.4000E+01
    -19.401  0.0000E+00  0.4000E+01
    -19.277  0.0000E+00  0.4000E+01
    -19.153  0.0000E+00  0.4000E+01
    -19.029  0.0000E+00  0.4000E+01
    -18.906  0.0000E+00  0.4000E+01
    -18.782  0.0000E+00  0.4000E+01
    -18.658  0.0000E+00  0.4000E+01
    -18.534  0.0000E+00  0.4000E+01
    -18.410  0.0000E+00  0.4000E+01
    -18.286  0.3150E+01  0.4223E+01
    -18.162  0.7548E+01  0.4883E+01
    -18.038  0.8758E+01  0.5896E+01
    -17.915  0.1493E+02  0.7252E+01
    -17.791  0.0000E+00  0.8000E+01
    -17.667  0.0000E+00  0.8000E+01
    -17.543  0.0000E+00  0.8000E+01
    -17.419  0.0000E+00  0.8000E+01
    -17.295  0.0000E+00  0.8000E+01
    -17.171  0.0000E+00  0.8000E+01
    -17.048  0.0000E+00  0.8000E+01
    -16.924  0.0000E+00  0.8000E+01
    -16.800  0.3982E+02  0.1179E+02
    -16.676  0.0000E+00  0.1200E+02
    -16.552  0.0000E+00  0.1200E+02
    -16.428  0.0000E+00  0.1200E+02
    -16.304  0.0000E+00  0.1200E+02
    -16.180  0.0000E+00  0.1200E+02
    -16.057  0.0000E+00  0.1200E+02
    -15.933  0.0000E+00  0.1200E+02
    -15.809  0.0000E+00  0.1200E+02
    -15.685  0.0000E+00  0.1200E+02
    -15.561  0.0000E+00  0.1200E+02
    -15.437  0.0000E+00  0.1200E+02
    -15.313  0.0000E+00  0.1200E+02
    -15.190  0.0000E+00  0.1200E+02
    -15.066  0.0000E+00  0.1200E+02
    -14.942  0.0000E+00  0.1200E+02
    -14.818  0.0000E+00  0.1200E+02
    -14.694  0.0000E+00  0.1200E+02
    -14.570  0.0000E+00  0.1200E+02
    -14.446  0.0000E+00  0.1200E+02
    -14.322  0.0000E+00  0.1200E+02
    -14.199  0.0000E+00  0.1200E+02
    -14.075  0.0000E+00  0.1200E+02
    -13.951  0.0000E+00  0.1200E+02
    -13.827  0.0000E+00  0.1200E+02
    -13.703  0.0000E+00  0.1200E+02
    -13.579  0.0000E+00  0.1200E+02
    -13.455  0.0000E+00  0.1200E+02
    -13.332  0.0000E+00  0.1200E+02
    -13.208  0.0000E+00  0.1200E+02
    -13.084  0.0000E+00  0.1200E+02
    -12.960  0.0000E+00  0.1200E+02
    -12.836  0.0000E+00  0.1200E+02
    -12.712  0.0000E+00  0.1200E+02
    -12.588  0.0000E+00  0.1200E+02
    -12.464  0.0000E+00  0.1200E+02
    -12.341  0.0000E+00  0.1200E+02
    -12.217  0.0000E+00  0.1200E+02
    -12.093  0.0000E+00  0.1200E+02
    -11.969  0.0000E+00  0.1200E+02
    -11.845  0.0000E+00  0.1200E+02
    -11.721  0.0000E+00  0.1200E+02
    -11.597  0.0000E+00  0.1200E+02
    -11.474  0.0000E+00  0.1200E+02
    -11.350  0.0000E+00  0.1200E+02
    -11.226  0.0000E+00  0.1200E+02
    -11.102  0.0000E+00  0.1200E+02
    -10.978  0.0000E+00  0.1200E+02
    -10.854  0.1051E+00  0.1200E+02
    -10.730  0.2175E+01  0.1215E+02
    -10.606  0.4942E+01  0.1255E+02
    -10.483  0.6160E+01  0.1326E+02
    -10.359  0.8859E+01  0.1418E+02
    -10.235  0.1053E+02  0.1527E+02
    -10.111  0.3139E+01  0.1596E+02
     -9.987  0.0000E+00  0.1600E+02
     -9.863  0.0000E+00  0.1600E+02
     -9.739  0.0000E+00  0.1600E+02
     -9.616  0.0000E+00  0.1600E+02
     -9.492  0.0000E+00  0.1600E+02
     -9.368  0.4478E+00  0.1601E+02
     -9.244  0.1483E+01  0.1613E+02
     -9.120  0.1813E+01  0.1633E+02
     -8.996  0.2453E+01  0.1660E+02
     -8.872  0.3725E+01  0.1696E+02
     -8.748  0.5431E+02  0.1816E+02
     -8.625  0.2927E+01  0.1986E+02
     -8.501  0.1109E+02  0.2044E+02
     -8.377  0.4753E+01  0.2237E+02
     -8.253  0.3022E+01  0.2280E+02
     -8.129  0.6909E+01  0.2322E+02
     -8.005  0.4860E+01  0.2379E+02
     -7.881  0.4304E+00  0.2399E+02
     -7.758  0.0000E+00  0.2400E+02
     -7.634  0.0000E+00  0.2400E+02
     -7.510  0.0000E+00  0.2400E+02
     -7.386  0.0000E+00  0.2400E+02
     -7.262  0.0000E+00  0.2400E+02
     -7.138  0.0000E+00  0.2400E+02
     -7.014  0.3542E+02  0.2477E+02
     -6.890  0.7176E+01  0.2652E+02
     -6.767  0.5758E+01  0.2728E+02
     -6.643  0.2735E+01  0.2794E+02
     -6.519  0.0000E+00  0.2800E+02
     -6.395  0.0000E+00  0.2800E+02
     -6.271  0.0000E+00  0.2800E+02
     -6.147  0.2654E+01  0.2815E+02
     -6.023  0.2948E+01  0.2847E+02
     -5.900  0.4877E+01  0.2893E+02
     -5.776  0.6145E+01  0.2964E+02
     -5.652  0.6610E+01  0.3064E+02
     -5.528  0.1432E+02  0.3174E+02
     -5.404  0.6541E+01  0.3338E+02
     -5.280  0.3018E+01  0.3397E+02
     -5.156  0.3050E+01  0.3434E+02
     -5.032  0.3720E+01  0.3475E+02
     -4.909  0.4232E+01  0.3526E+02
     -4.785  0.2919E+01  0.3574E+02
     -4.661  0.9260E+00  0.3596E+02
     -4.537  0.0000E+00  0.3600E+02
     -4.413  0.0000E+00  0.3600E+02
     -4.289  0.0000E+00  0.3600E+02
     -4.165  0.0000E+00  0.3600E+02
     -4.041  0.0000E+00  0.3600E+02
     -3.918  0.0000E+00  0.3600E+02
     -3.794  0.0000E+00  0.3600E+02
     -3.670  0.0000E+00  0.3600E+02
     -3.546  0.0000E+00  0.3600E+02
     -3.422  0.0000E+00  0.3600E+02
     -3.298  0.0000E+00  0.3600E+02
     -3.174  0.0000E+00  0.3600E+02
     -3.051  0.0000E+00  0.3600E+02
     -2.927  0.0000E+00  0.3600E+02
     -2.803  0.0000E+00  0.3600E+02
     -2.679  0.0000E+00  0.3600E+02
     -2.555  0.0000E+00  0.3600E+02
     -2.431  0.0000E+00  0.3600E+02
     -2.307  0.0000E+00  0.3600E+02
     -2.183  0.8190E+01  0.3618E+02
     -2.060  0.1904E+02  0.3765E+02
     -1.936  0.5544E+01  0.3997E+02
     -1.812  0.7330E+01  0.4046E+02
     -1.688  0.1549E+02  0.4229E+02
     -1.564  0.9797E+01  0.4357E+02
     -1.440  0.9274E+01  0.4477E+02
     -1.316  0.6009E+01  0.4546E+02
     -1.193  0.1017E+02  0.4662E+02
     -1.069  0.4413E+01  0.4776E+02
     -0.945  0.0000E+00  0.4800E+02
     -0.821  0.0000E+00  0.4800E+02
     -0.697  0.0000E+00  0.4800E+02
     -0.573  0.0000E+00  0.4800E+02
     -0.449  0.0000E+00  0.4800E+02
     -0.325  0.0000E+00  0.4800E+02
     -0.202  0.0000E+00  0.4800E+02
     -0.078  0.0000E+00  0.4800E+02
      0.046  0.0000E+00  0.4800E+02
      0.170  0.0000E+00  0.4800E+02
      0.294  0.0000E+00  0.4800E+02
      0.418  0.0000E+00  0.4800E+02
      0.542  0.0000E+00  0.4800E+02
      0.665  0.0000E+00  0.4800E+02
      0.789  0.0000E+00  0.4800E+02
      0.913  0.0000E+00  0.4800E+02
      1.037  0.0000E+00  0.4800E+02
      1.161  0.0000E+00  0.4800E+02
      1.285  0.0000E+00  0.4800E+02
      1.409  0.0000E+00  0.4800E+02
      1.533  0.0000E+00  0.4800E+02
      1.656  0.0000E+00  0.4800E+02
      1.780  0.0000E+00  0.4800E+02
      1.904  0.0000E+00  0.4800E+02
      2.028  0.0000E+00  0.4800E+02
      2.152  0.0000E+00  0.4800E+02
      2.276  0.0000E+00  0.4800E+02
      2.400  0.0000E+00  0.4800E+02
      2.523  0.0000E+00  0.4800E+02
      2.647  0.0000E+00  0.4800E+02
      2.771  0.0000E+00  0.4800E+02
      2.895  0.0000E+00  0.4800E+02
      3.019  0.0000E+00  0.4800E+02
      3.143  0.0000E+00  0.4800E+02
      3.267  0.0000E+00  0.4800E+02
      3.391  0.0000E+00  0.4800E+02
      3.514  0.0000E+00  0.4800E+02
      3.638  0.0000E+00  0.4800E+02
      3.762  0.0000E+00  0.4800E+02
      3.886  0.0000E+00  0.4800E+02
      4.010  0.0000E+00  0.4800E+02
      4.134  0.0000E+00  0.4800E+02
      4.258  0.4456E-01  0.4800E+02
      4.381  0.5486E+00  0.4803E+02
      4.505  0.4425E+01  0.4826E+02
      4.629  0.5215E+01  0.4891E+02
      4.753  0.5858E+01  0.4959E+02
      4.877  0.6812E+01  0.5039E+02
      5.001  0.1029E+02  0.5138E+02
      5.125  0.2868E+01  0.5215E+02
      5.249  0.9678E+00  0.5232E+02
      5.372  0.1037E+01  0.5244E+02
      5.496  0.1256E+01  0.5259E+02
      5.620  0.1358E+01  0.5275E+02
      5.744  0.1416E+01  0.5292E+02
      5.868  0.1538E+01  0.5310E+02
      5.992  0.1616E+01  0.5330E+02
      6.116  0.1829E+01  0.5351E+02
      6.239  0.1919E+01  0.5374E+02
      6.363  0.1894E+01  0.5398E+02
      6.487  0.1956E+01  0.5422E+02
      6.611  0.2450E+01  0.5448E+02
      6.735  0.3226E+01  0.5483E+02
      6.859  0.3229E+01  0.5523E+02
      6.983  0.2642E+01  0.5560E+02
      7.107  0.1700E+01  0.5588E+02
      7.230  0.1495E+00  0.5600E+02
      7.354  0.1123E+01  0.5605E+02
      7.478  0.2894E+01  0.5631E+02
      7.602  0.1133E+02  0.5698E+02
      7.726  0.6380E+01  0.5816E+02
      7.850  0.6504E+01  0.5894E+02
      7.974  0.2632E+01  0.5952E+02
      8.097  0.2793E+01  0.5982E+02
      8.221  0.4023E+01  0.6025E+02
      8.345  0.3882E+01  0.6074E+02
      8.469  0.4160E+01  0.6123E+02
      8.593  0.4728E+01  0.6180E+02
      8.717  0.5762E+01  0.6241E+02
      8.841  0.6717E+01  0.6321E+02
      8.965  0.5551E+01  0.6393E+02
      9.088  0.4982E+01  0.6459E+02
      9.212  0.4498E+01  0.6519E+02
      9.336  0.3367E+01  0.6568E+02
      9.460  0.3743E+01  0.6611E+02
      9.584  0.4053E+01  0.6662E+02
      9.708  0.4305E+01  0.6712E+02
      9.832  0.6469E+01  0.6782E+02
      9.955  0.6274E+01  0.6864E+02
     10.079  0.7112E+01  0.6946E+02
     10.203  0.7115E+01  0.7033E+02
     10.327  0.8017E+01  0.7125E+02
     10.451  0.5205E+01  0.7215E+02
     10.575  0.7248E+01  0.7288E+02
     10.699  0.5650E+01  0.7371E+02
     10.823  0.5576E+01  0.7436E+02
     10.946  0.8801E+01  0.7528E+02
     11.070  0.1868E+01  0.7584E+02
     11.194  0.6203E+00  0.7597E+02
     11.318  0.4982E+00  0.7600E+02
     11.442  0.7924E+01  0.7646E+02
     11.566  0.5681E+01  0.7746E+02
     11.690  0.5270E+01  0.7811E+02
     11.813  0.6638E+01  0.7887E+02
     11.937  0.4076E+01  0.7957E+02
     12.061  0.1571E+01  0.7991E+02
     12.185  0.6350E-01  0.8000E+02
     12.309  0.8997E-02  0.8000E+02
     12.433  0.0000E+00  0.8000E+02
     12.557  0.0000E+00  0.8000E+02
     12.681  0.0000E+00  0.8000E+02
     12.804  0.0000E+00  0.8000E+02
     12.928  0.0000E+00  0.8000E+02
     13.052  0.0000E+00  0.8000E+02
     13.176  0.0000E+00  0.8000E+02
     13.300  0.0000E+00  0.8000E+02
     13.424  0.0000E+00  0.8000E+02
     13.548  0.0000E+00  0.8000E+02
     13.671  0.0000E+00  0.8000E+02
     13.795  0.0000E+00  0.8000E+02
     13.919  0.0000E+00  0.8000E+02
     14.043  0.0000E+00  0.8000E+02
