   16   16    1    1
  0.8853054E+01  0.5519466E-09  0.5519466E-09  0.4649636E-09  0.4000000E-15
   1.0000000000000000E-004
  CAR 
 unknown system                          
     48     40     40

  0.3742002E-15  0.3742002E-15  0.3742002E-15  0.3968254E-02
    1      -21.427918   1.000000
    2      -21.205844   1.000000
    3      -17.914023   1.000000
    4      -17.860349   1.000000
    5      -16.845706   1.000000
    6      -16.845706   1.000000
    7      -10.872049   1.000000
    8      -10.154249   1.000000
    9       -9.429735   1.000000
   10       -8.446612   1.000000
   11       -8.440634   1.000000
   12       -8.440634   1.000000
   13       -7.089816   1.000000
   14       -7.089816   1.000000
   15       -5.414729   1.000000
   16       -5.414729   1.000000
   17       -5.050401   1.000000
   18       -4.567516   1.000000
   19       -2.154496   1.000000
   20       -2.154496   1.000000
   21       -2.108107   1.000000
   22       -1.625141   1.000000
   23       -1.625141   1.000000
   24       -0.960129   1.000000
   25        4.198115   0.000000
   26        4.815421   0.000000
   27        4.815421   0.000000
   28        6.910943   0.000000
   29        8.253885   0.000000
   30        8.495116   0.000000
   31        8.673052   0.000000
   32        8.673052   0.000000
   33        9.582446   0.000000
   34        9.920193   0.000000
   35       10.366980   0.000000
   36       10.471389   0.000000
   37       11.424858   0.000000
   38       11.425967   0.000000
   39       11.594103   0.000000
   40       11.614827   0.000000

  0.1666667E+00  0.3742002E-15  0.3742002E-15  0.1587302E-01
    1      -21.413409   1.000000
    2      -21.221087   1.000000
    3      -17.910245   1.000000
    4      -17.863794   1.000000
    5      -16.845063   1.000000
    6      -16.844992   1.000000
    7      -10.838466   1.000000
    8      -10.223027   1.000000
    9       -9.396838   1.000000
   10       -8.619878   1.000000
   11       -8.431609   1.000000
   12       -8.390823   1.000000
   13       -7.001312   1.000000
   14       -6.950034   1.000000
   15       -5.514447   1.000000
   16       -5.471277   1.000000
   17       -4.990080   1.000000
   18       -4.591237   1.000000
   19       -2.200642   1.000000
   20       -2.173157   1.000000
   21       -1.989887   1.000000
   22       -1.649909   1.000000
   23       -1.618650   1.000000
   24       -0.988107   1.000000
   25        4.327290   0.000000
   26        4.764406   0.000000
   27        4.842586   0.000000
   28        7.006612   0.000000
   29        7.700839   0.000000
   30        8.518677   0.000000
   31        8.573096   0.000000
   32        9.129767   0.000000
   33        9.681190   0.000000
   34       10.035232   0.000000
   35       10.108333   0.000000
   36       10.419568   0.000000
   37       11.098225   0.000000
   38       11.202804   0.000000
   39       11.353790   0.000000
   40       11.794756   0.000000

  0.3333333E+00  0.3742002E-15  0.3742002E-15  0.1587302E-01
    1      -21.373417   1.000000
    2      -21.262369   1.000000
    3      -17.900060   1.000000
    4      -17.873271   1.000000
    5      -16.843686   1.000000
    6      -16.843520   1.000000
    7      -10.738609   1.000000
    8      -10.390059   1.000000
    9       -9.293171   1.000000
   10       -8.877280   1.000000
   11       -8.412726   1.000000
   12       -8.385840   1.000000
   13       -6.789539   1.000000
   14       -6.694111   1.000000
   15       -5.694831   1.000000
   16       -5.615443   1.000000
   17       -4.879835   1.000000
   18       -4.660285   1.000000
   19       -2.231606   1.000000
   20       -2.211313   1.000000
   21       -1.832069   1.000000
   22       -1.706088   1.000000
   23       -1.530195   1.000000
   24       -1.095297   1.000000
   25        4.505598   0.000000
   26        4.659007   0.000000
   27        5.132659   0.000000
   28        6.653768   0.000000
   29        7.514724   0.000000
   30        8.337004   0.000000
   31        8.860236   0.000000
   32        9.331197   0.000000
   33        9.515096   0.000000
   34        9.952596   0.000000
   35       10.169514   0.000000
   36       10.246030   0.000000
   37       10.788313   0.000000
   38       10.917098   0.000000
   39       11.637648   0.000000
   40       12.004164   0.000000

  0.5000000E+00  0.3742002E-15  0.3742002E-15  0.7936508E-02
    1      -21.318227   1.000000
    2      -21.318227   1.000000
    3      -17.886508   1.000000
    4      -17.886508   1.000000
    5      -16.842867   1.000000
    6      -16.842867   1.000000
    7      -10.580461   1.000000
    8      -10.580461   1.000000
    9       -9.116344   1.000000
   10       -9.116344   1.000000
   11       -8.395501   1.000000
   12       -8.395501   1.000000
   13       -6.612477   1.000000
   14       -6.612477   1.000000
   15       -5.750453   1.000000
   16       -5.750453   1.000000
   17       -4.763588   1.000000
   18       -4.763588   1.000000
   19       -2.236420   1.000000
   20       -2.236420   1.000000
   21       -1.762278   1.000000
   22       -1.762278   1.000000
   23       -1.301482   1.000000
   24       -1.301482   1.000000
   25        4.571824   0.000000
   26        4.571824   0.000000
   27        5.818115   0.000000
   28        5.818115   0.000000
   29        7.949206   0.000000
   30        7.949206   0.000000
   31        9.235588   0.000000
   32        9.235588   0.000000
   33        9.485981   0.000000
   34        9.485981   0.000000
   35       10.432164   0.000000
   36       10.432164   0.000000
   37       10.573630   0.000000
   38       10.573630   0.000000
   39       12.135955   0.000000
   40       12.135955   0.000000

  0.1666667E+00  0.1666667E+00  0.3742002E-15  0.1587302E-01
    1      -21.400629   1.000000
    2      -21.234031   1.000000
    3      -17.906427   1.000000
    4      -17.865984   1.000000
    5      -16.850825   1.000000
    6      -16.841057   1.000000
    7      -10.810050   1.000000
    8      -10.285139   1.000000
    9       -9.356026   1.000000
   10       -8.664587   1.000000
   11       -8.446442   1.000000
   12       -8.381454   1.000000
   13       -7.089604   1.000000
   14       -6.738147   1.000000
   15       -5.645046   1.000000
   16       -5.448365   1.000000
   17       -4.958832   1.000000
   18       -4.613421   1.000000
   19       -2.195470   1.000000
   20       -2.194032   1.000000
   21       -1.912971   1.000000
   22       -1.678042   1.000000
   23       -1.591948   1.000000
   24       -1.010207   1.000000
   25        4.383754   0.000000
   26        4.765887   0.000000
   27        4.881679   0.000000
   28        7.062931   0.000000
   29        7.731239   0.000000
   30        7.760016   0.000000
   31        9.081098   0.000000
   32        9.293260   0.000000
   33        9.699651   0.000000
   34       10.005461   0.000000
   35       10.117965   0.000000
   36       10.376013   0.000000
   37       10.922412   0.000000
   38       10.958147   0.000000
   39       11.382240   0.000000
   40       11.752085   0.000000

  0.3333333E+00  0.1666667E+00  0.3742002E-15  0.3174603E-01
    1      -21.365617   1.000000
    2      -21.269399   1.000000
    3      -17.896405   1.000000
    4      -17.872810   1.000000
    5      -16.852604   1.000000
    6      -16.842814   1.000000
    7      -10.726234   1.000000
    8      -10.431404   1.000000
    9       -9.235305   1.000000
   10       -8.829923   1.000000
   11       -8.432709   1.000000
   12       -8.386682   1.000000
   13       -6.978702   1.000000
   14       -6.602963   1.000000
   15       -5.759304   1.000000
   16       -5.534429   1.000000
   17       -4.876471   1.000000
   18       -4.677798   1.000000
   19       -2.216059   1.000000
   20       -2.199023   1.000000
   21       -1.790775   1.000000
   22       -1.707913   1.000000
   23       -1.495044   1.000000
   24       -1.100398   1.000000
   25        4.457799   0.000000
   26        4.664001   0.000000
   27        5.239127   0.000000
   28        6.676994   0.000000
   29        7.523541   0.000000
   30        7.828619   0.000000
   31        9.091158   0.000000
   32        9.335593   0.000000
   33        9.690491   0.000000
   34        9.993185   0.000000
   35       10.279299   0.000000
   36       10.408070   0.000000
   37       10.624075   0.000000
   38       10.868236   0.000000
   39       11.351298   0.000000
   40       11.781150   0.000000

  0.5000000E+00  0.1666667E+00  0.3742002E-15  0.1587302E-01
    1      -21.317600   1.000000
    2      -21.317600   1.000000
    3      -17.883814   1.000000
    4      -17.883814   1.000000
    5      -16.848589   1.000000
    6      -16.848589   1.000000
    7      -10.593355   1.000000
    8      -10.593355   1.000000
    9       -9.047203   1.000000
   10       -9.047203   1.000000
   11       -8.406884   1.000000
   12       -8.406884   1.000000
   13       -6.741520   1.000000
   14       -6.741520   1.000000
   15       -5.682151   1.000000
   16       -5.682151   1.000000
   17       -4.773151   1.000000
   18       -4.773151   1.000000
   19       -2.213788   1.000000
   20       -2.213788   1.000000
   21       -1.739737   1.000000
   22       -1.739737   1.000000
   23       -1.283207   1.000000
   24       -1.283207   1.000000
   25        4.542208   0.000000
   26        4.542208   0.000000
   27        5.889992   0.000000
   28        5.889992   0.000000
   29        7.774384   0.000000
   30        7.774384   0.000000
   31        9.094268   0.000000
   32        9.094268   0.000000
   33        9.825260   0.000000
   34        9.825260   0.000000
   35       10.409270   0.000000
   36       10.409270   0.000000
   37       10.710334   0.000000
   38       10.710334   0.000000
   39       11.620034   0.000000
   40       11.620034   0.000000

  0.3333333E+00  0.3333333E+00  0.3742002E-15  0.1587302E-01
    1      -21.344553   1.000000
    2      -21.288949   1.000000
    3      -17.887529   1.000000
    4      -17.873474   1.000000
    5      -16.860947   1.000000
    6      -16.851091   1.000000
    7      -10.686688   1.000000
    8      -10.523512   1.000000
    9       -9.080928   1.000000
   10       -8.785773   1.000000
   11       -8.457969   1.000000
   12       -8.404299   1.000000
   13       -7.088039   1.000000
   14       -6.735997   1.000000
   15       -5.699844   1.000000
   16       -5.510920   1.000000
   17       -4.850648   1.000000
   18       -4.726808   1.000000
   19       -2.191445   1.000000
   20       -2.171168   1.000000
   21       -1.722238   1.000000
   22       -1.700491   1.000000
   23       -1.390963   1.000000
   24       -1.139012   1.000000
   25        4.433152   0.000000
   26        4.593137   0.000000
   27        5.562381   0.000000
   28        6.556145   0.000000
   29        7.332819   0.000000
   30        7.571978   0.000000
   31        8.957056   0.000000
   32        9.470242   0.000000
   33       10.053961   0.000000
   34       10.078340   0.000000
   35       10.344566   0.000000
   36       10.390392   0.000000
   37       10.492250   0.000000
   38       10.908323   0.000000
   39       11.266121   0.000000
   40       11.358134   0.000000

  0.5000000E+00  0.3333333E+00  0.3742002E-15  0.1587302E-01
    1      -21.316363   1.000000
    2      -21.316363   1.000000
    3      -17.878412   1.000000
    4      -17.878412   1.000000
    5      -16.860156   1.000000
    6      -16.860156   1.000000
    7      -10.617037   1.000000
    8      -10.617037   1.000000
    9       -8.892060   1.000000
   10       -8.892060   1.000000
   11       -8.437992   1.000000
   12       -8.437992   1.000000
   13       -6.974156   1.000000
   14       -6.974156   1.000000
   15       -5.580698   1.000000
   16       -5.580698   1.000000
   17       -4.793137   1.000000
   18       -4.793137   1.000000
   19       -2.168841   1.000000
   20       -2.168841   1.000000
   21       -1.695373   1.000000
   22       -1.695373   1.000000
   23       -1.244987   1.000000
   24       -1.244987   1.000000
   25        4.489433   0.000000
   26        4.489433   0.000000
   27        6.054808   0.000000
   28        6.054808   0.000000
   29        7.419944   0.000000
   30        7.419944   0.000000
   31        9.162932   0.000000
   32        9.162932   0.000000
   33       10.085312   0.000000
   34       10.085312   0.000000
   35       10.393974   0.000000
   36       10.393974   0.000000
   37       10.689542   0.000000
   38       10.689542   0.000000
   39       11.365368   0.000000
   40       11.365368   0.000000

  0.5000000E+00  0.5000000E+00  0.3742002E-15  0.3968254E-02
    1      -21.315711   1.000000
    2      -21.315711   1.000000
    3      -17.875648   1.000000
    4      -17.875648   1.000000
    5      -16.865959   1.000000
    6      -16.865959   1.000000
    7      -10.627928   1.000000
    8      -10.627928   1.000000
    9       -8.798222   1.000000
   10       -8.798222   1.000000
   11       -8.463683   1.000000
   12       -8.463683   1.000000
   13       -7.086796   1.000000
   14       -7.086796   1.000000
   15       -5.540111   1.000000
   16       -5.540111   1.000000
   17       -4.803539   1.000000
   18       -4.803539   1.000000
   19       -2.146703   1.000000
   20       -2.146703   1.000000
   21       -1.673414   1.000000
   22       -1.673414   1.000000
   23       -1.225032   1.000000
   24       -1.225032   1.000000
   25        4.465812   0.000000
   26        4.465812   0.000000
   27        6.158747   0.000000
   28        6.158747   0.000000
   29        7.231733   0.000000
   30        7.231733   0.000000
   31        9.274477   0.000000
   32        9.274477   0.000000
   33       10.136831   0.000000
   34       10.136831   0.000000
   35       10.329719   0.000000
   36       10.329719   0.000000
   37       10.451645   0.000000
   38       10.451645   0.000000
   39       11.723475   0.000000
   40       11.723475   0.000000

  0.3742002E-15  0.3742002E-15  0.1428571E+00  0.7936508E-02
    1      -21.402204   1.000000
    2      -21.189835   1.000000
    3      -18.049964   1.000000
    4      -17.844090   1.000000
    5      -16.839737   1.000000
    6      -16.839737   1.000000
    7      -10.781686   1.000000
    8      -10.122973   1.000000
    9       -9.258233   1.000000
   10       -8.500913   1.000000
   11       -8.500913   1.000000
   12       -8.362860   1.000000
   13       -7.079365   1.000000
   14       -7.079365   1.000000
   15       -5.412968   1.000000
   16       -5.412968   1.000000
   17       -5.258497   1.000000
   18       -4.800718   1.000000
   19       -2.072535   1.000000
   20       -2.060251   1.000000
   21       -2.060251   1.000000
   22       -1.636372   1.000000
   23       -1.636372   1.000000
   24       -0.992802   1.000000
   25        4.399197   0.000000
   26        4.889026   0.000000
   27        4.889026   0.000000
   28        7.072031   0.000000
   29        8.177956   0.000000
   30        8.222802   0.000000
   31        8.588878   0.000000
   32        8.588878   0.000000
   33        8.928937   0.000000
   34        9.840758   0.000000
   35       10.449281   0.000000
   36       10.860608   0.000000
   37       11.111783   0.000000
   38       11.111783   0.000000
   39       11.286155   0.000000
   40       11.840255   0.000000

  0.1666667E+00  0.3742002E-15  0.1428571E+00  0.3174603E-01
    1      -21.388243   1.000000
    2      -21.204347   1.000000
    3      -18.037122   1.000000
    4      -17.859087   1.000000
    5      -16.837929   1.000000
    6      -16.837695   1.000000
    7      -10.750062   1.000000
    8      -10.183561   1.000000
    9       -9.233796   1.000000
   10       -8.574215   1.000000
   11       -8.492171   1.000000
   12       -8.409692   1.000000
   13       -6.998694   1.000000
   14       -6.940835   1.000000
   15       -5.555256   1.000000
   16       -5.468045   1.000000
   17       -5.156072   1.000000
   18       -4.809305   1.000000
   19       -2.118224   1.000000
   20       -2.064723   1.000000
   21       -1.947452   1.000000
   22       -1.671408   1.000000
   23       -1.640498   1.000000
   24       -1.014329   1.000000
   25        4.498437   0.000000
   26        4.841363   0.000000
   27        4.940412   0.000000
   28        7.185817   0.000000
   29        7.624425   0.000000
   30        8.326404   0.000000
   31        8.499432   0.000000
   32        8.942868   0.000000
   33        9.134217   0.000000
   34        9.883843   0.000000
   35       10.078064   0.000000
   36       10.683831   0.000000
   37       10.898891   0.000000
   38       11.196084   0.000000
   39       11.420964   0.000000
   40       11.786984   0.000000

  0.3333333E+00  0.3742002E-15  0.1428571E+00  0.3174603E-01
    1      -21.349951   1.000000
    2      -21.243796   1.000000
    3      -18.001466   1.000000
    4      -17.898925   1.000000
    5      -16.834197   1.000000
    6      -16.833774   1.000000
    7      -10.656417   1.000000
    8      -10.333931   1.000000
    9       -9.150604   1.000000
   10       -8.786541   1.000000
   11       -8.473111   1.000000
   12       -8.437069   1.000000
   13       -6.804895   1.000000
   14       -6.696269   1.000000
   15       -5.739721   1.000000
   16       -5.612810   1.000000
   17       -5.032011   1.000000
   18       -4.846861   1.000000
   19       -2.126365   1.000000
   20       -2.079197   1.000000
   21       -1.856462   1.000000
   22       -1.751705   1.000000
   23       -1.534450   1.000000
   24       -1.105764   1.000000
   25        4.607687   0.000000
   26        4.742007   0.000000
   27        5.280739   0.000000
   28        6.762761   0.000000
   29        7.551435   0.000000
   30        8.303868   0.000000
   31        8.690163   0.000000
   32        9.113744   0.000000
   33        9.481302   0.000000
   34        9.533868   0.000000
   35       10.009239   0.000000
   36       10.290758   0.000000
   37       10.580149   0.000000
   38       10.966074   0.000000
   39       11.710298   0.000000
   40       12.083136   0.000000

  0.5000000E+00  0.3742002E-15  0.1428571E+00  0.1587302E-01
    1      -21.297169   1.000000
    2      -21.297169   1.000000
    3      -17.951237   1.000000
    4      -17.951237   1.000000
    5      -16.832090   1.000000
    6      -16.832090   1.000000
    7      -10.509047   1.000000
    8      -10.509047   1.000000
    9       -8.998434   1.000000
   10       -8.998434   1.000000
   11       -8.453809   1.000000
   12       -8.453809   1.000000
   13       -6.634611   1.000000
   14       -6.634611   1.000000
   15       -5.763794   1.000000
   16       -5.763794   1.000000
   17       -4.924597   1.000000
   18       -4.924597   1.000000
   19       -2.106254   1.000000
   20       -2.106254   1.000000
   21       -1.823248   1.000000
   22       -1.823248   1.000000
   23       -1.297105   1.000000
   24       -1.297105   1.000000
   25        4.658784   0.000000
   26        4.658784   0.000000
   27        5.949338   0.000000
   28        5.949338   0.000000
   29        7.978731   0.000000
   30        7.978731   0.000000
   31        9.054768   0.000000
   32        9.054768   0.000000
   33        9.371063   0.000000
   34        9.371063   0.000000
   35       10.219639   0.000000
   36       10.219639   0.000000
   37       10.503283   0.000000
   38       10.503283   0.000000
   39       12.182526   0.000000
   40       12.182526   0.000000

  0.1666667E+00  0.1666667E+00  0.1428571E+00  0.3174603E-01
    1      -21.376021   1.000000
    2      -21.216752   1.000000
    3      -18.025204   1.000000
    4      -17.870754   1.000000
    5      -16.844757   1.000000
    6      -16.831477   1.000000
    7      -10.722593   1.000000
    8      -10.237578   1.000000
    9       -9.201094   1.000000
   10       -8.601137   1.000000
   11       -8.507425   1.000000
   12       -8.416782   1.000000
   13       -7.081591   1.000000
   14       -6.742660   1.000000
   15       -5.683289   1.000000
   16       -5.439925   1.000000
   17       -5.126598   1.000000
   18       -4.823457   1.000000
   19       -2.118702   1.000000
   20       -2.072119   1.000000
   21       -1.875627   1.000000
   22       -1.726576   1.000000
   23       -1.599500   1.000000
   24       -1.031335   1.000000
   25        4.523129   0.000000
   26        4.838824   0.000000
   27        5.014044   0.000000
   28        7.267721   0.000000
   29        7.644829   0.000000
   30        7.717371   0.000000
   31        8.816445   0.000000
   32        9.143372   0.000000
   33        9.186822   0.000000
   34        9.800890   0.000000
   35       10.110456   0.000000
   36       10.530901   0.000000
   37       10.780170   0.000000
   38       11.071731   0.000000
   39       11.534989   0.000000
   40       11.828824   0.000000

  0.3333333E+00  0.1666667E+00  0.1428571E+00  0.6349206E-01
    1      -21.342525   1.000000
    2      -21.250573   1.000000
    3      -17.992517   1.000000
    4      -17.903046   1.000000
    5      -16.845307   1.000000
    6      -16.832065   1.000000
    7      -10.642080   1.000000
    8      -10.368022   1.000000
    9       -9.099861   1.000000
   10       -8.743486   1.000000
   11       -8.492844   1.000000
   12       -8.437999   1.000000
   13       -6.978886   1.000000
   14       -6.621124   1.000000
   15       -5.783781   1.000000
   16       -5.529899   1.000000
   17       -5.041193   1.000000
   18       -4.868356   1.000000
   19       -2.115665   1.000000
   20       -2.082491   1.000000
   21       -1.809403   1.000000
   22       -1.751296   1.000000
   23       -1.491959   1.000000
   24       -1.108739   1.000000
   25        4.558928   0.000000
   26        4.742793   0.000000
   27        5.397055   0.000000
   28        6.810013   0.000000
   29        7.580139   0.000000
   30        7.815790   0.000000
   31        8.811327   0.000000
   32        9.103810   0.000000
   33        9.524602   0.000000
   34        9.738990   0.000000
   35       10.032766   0.000000
   36       10.419765   0.000000
   37       10.560032   0.000000
   38       10.897497   0.000000
   39       11.540743   0.000000
   40       11.950914   0.000000

  0.5000000E+00  0.1666667E+00  0.1428571E+00  0.3174603E-01
    1      -21.296634   1.000000
    2      -21.296634   1.000000
    3      -17.947710   1.000000
    4      -17.947710   1.000000
    5      -16.838946   1.000000
    6      -16.838946   1.000000
    7      -10.516811   1.000000
    8      -10.516811   1.000000
    9       -8.935982   1.000000
   10       -8.935982   1.000000
   11       -8.465294   1.000000
   12       -8.465294   1.000000
   13       -6.756463   1.000000
   14       -6.756463   1.000000
   15       -5.689706   1.000000
   16       -5.689706   1.000000
   17       -4.945016   1.000000
   18       -4.945016   1.000000
   19       -2.101076   1.000000
   20       -2.101076   1.000000
   21       -1.784291   1.000000
   22       -1.784291   1.000000
   23       -1.278608   1.000000
   24       -1.278608   1.000000
   25        4.629812   0.000000
   26        4.629812   0.000000
   27        6.034654   0.000000
   28        6.034654   0.000000
   29        7.827404   0.000000
   30        7.827404   0.000000
   31        8.848054   0.000000
   32        8.848054   0.000000
   33        9.700101   0.000000
   34        9.700101   0.000000
   35       10.152441   0.000000
   36       10.152441   0.000000
   37       10.679154   0.000000
   38       10.679154   0.000000
   39       11.783740   0.000000
   40       11.783740   0.000000

  0.3333333E+00  0.3333333E+00  0.1428571E+00  0.3174603E-01
    1      -21.322446   1.000000
    2      -21.269326   1.000000
    3      -17.969163   1.000000
    4      -17.916721   1.000000
    5      -16.854760   1.000000
    6      -16.841419   1.000000
    7      -10.599427   1.000000
    8      -10.446592   1.000000
    9       -8.962603   1.000000
   10       -8.697979   1.000000
   11       -8.520565   1.000000
   12       -8.457594   1.000000
   13       -7.085227   1.000000
   14       -6.751953   1.000000
   15       -5.706478   1.000000
   16       -5.489196   1.000000
   17       -5.040654   1.000000
   18       -4.923482   1.000000
   19       -2.096860   1.000000
   20       -2.084200   1.000000
   21       -1.743182   1.000000
   22       -1.722766   1.000000
   23       -1.382330   1.000000
   24       -1.141559   1.000000
   25        4.529895   0.000000
   26        4.674741   0.000000
   27        5.733417   0.000000
   28        6.749742   0.000000
   29        7.340363   0.000000
   30        7.625745   0.000000
   31        8.646946   0.000000
   32        9.213270   0.000000
   33        9.590507   0.000000
   34        9.779266   0.000000
   35       10.201625   0.000000
   36       10.377029   0.000000
   37       10.590971   0.000000
   38       11.017029   0.000000
   39       11.495549   0.000000
   40       11.531189   0.000000

  0.5000000E+00  0.3333333E+00  0.1428571E+00  0.3174603E-01
    1      -21.295529   1.000000
    2      -21.295529   1.000000
    3      -17.940509   1.000000
    4      -17.940509   1.000000
    5      -16.852755   1.000000
    6      -16.852755   1.000000
    7      -10.531157   1.000000
    8      -10.531157   1.000000
    9       -8.792791   1.000000
   10       -8.792791   1.000000
   11       -8.496889   1.000000
   12       -8.496889   1.000000
   13       -6.978325   1.000000
   14       -6.978325   1.000000
   15       -5.567714   1.000000
   16       -5.567714   1.000000
   17       -4.992293   1.000000
   18       -4.992293   1.000000
   19       -2.085786   1.000000
   20       -2.085786   1.000000
   21       -1.711981   1.000000
   22       -1.711981   1.000000
   23       -1.240411   1.000000
   24       -1.240411   1.000000
   25        4.579095   0.000000
   26        4.579095   0.000000
   27        6.236785   0.000000
   28        6.236785   0.000000
   29        7.462714   0.000000
   30        7.462714   0.000000
   31        8.858686   0.000000
   32        8.858686   0.000000
   33        9.770730   0.000000
   34        9.770730   0.000000
   35       10.157806   0.000000
   36       10.157806   0.000000
   37       10.957378   0.000000
   38       10.957378   0.000000
   39       11.491166   0.000000
   40       11.491166   0.000000

  0.5000000E+00  0.5000000E+00  0.1428571E+00  0.7936508E-02
    1      -21.294977   1.000000
    2      -21.294977   1.000000
    3      -17.936846   1.000000
    4      -17.936846   1.000000
    5      -16.859706   1.000000
    6      -16.859706   1.000000
    7      -10.537821   1.000000
    8      -10.537821   1.000000
    9       -8.699980   1.000000
   10       -8.699980   1.000000
   11       -8.527179   1.000000
   12       -8.527179   1.000000
   13       -7.086624   1.000000
   14       -7.086624   1.000000
   15       -5.511707   1.000000
   16       -5.511707   1.000000
   17       -5.020571   1.000000
   18       -5.020571   1.000000
   19       -2.076663   1.000000
   20       -2.076663   1.000000
   21       -1.677524   1.000000
   22       -1.677524   1.000000
   23       -1.220807   1.000000
   24       -1.220807   1.000000
   25        4.556790   0.000000
   26        4.556790   0.000000
   27        6.375214   0.000000
   28        6.375214   0.000000
   29        7.246879   0.000000
   30        7.246879   0.000000
   31        8.939353   0.000000
   32        8.939353   0.000000
   33        9.646260   0.000000
   34        9.646260   0.000000
   35       10.214759   0.000000
   36       10.214759   0.000000
   37       10.886471   0.000000
   38       10.886471   0.000000
   39       11.775223   0.000000
   40       11.775223   0.000000

  0.3742002E-15  0.3742002E-15  0.2857143E+00  0.7936508E-02
    1      -21.340687   1.000000
    2      -21.153459   1.000000
    3      -18.258826   1.000000
    4      -17.902650   1.000000
    5      -16.826206   1.000000
    6      -16.826206   1.000000
    7      -10.577098   1.000000
    8      -10.086863   1.000000
    9       -8.765516   1.000000
   10       -8.633360   1.000000
   11       -8.633360   1.000000
   12       -8.113176   1.000000
   13       -7.043054   1.000000
   14       -7.043054   1.000000
   15       -5.779689   1.000000
   16       -5.427088   1.000000
   17       -5.427088   1.000000
   18       -5.393324   1.000000
   19       -1.982449   1.000000
   20       -1.906973   1.000000
   21       -1.906973   1.000000
   22       -1.590439   1.000000
   23       -1.590439   1.000000
   24       -1.076551   1.000000
   25        4.883498   0.000000
   26        5.050809   0.000000
   27        5.050809   0.000000
   28        7.016639   0.000000
   29        7.765365   0.000000
   30        8.143876   0.000000
   31        8.427927   0.000000
   32        8.427927   0.000000
   33        8.557391   0.000000
   34        9.952660   0.000000
   35       10.117066   0.000000
   36       10.646193   0.000000
   37       10.710312   0.000000
   38       10.710312   0.000000
   39       11.850891   0.000000
   40       11.898605   0.000000

  0.1666667E+00  0.3742002E-15  0.2857143E+00  0.3174603E-01
    1      -21.328317   1.000000
    2      -21.166177   1.000000
    3      -18.237846   1.000000
    4      -17.930273   1.000000
    5      -16.822482   1.000000
    6      -16.821493   1.000000
    7      -10.553033   1.000000
    8      -10.129348   1.000000
    9       -8.774533   1.000000
   10       -8.640980   1.000000
   11       -8.609064   1.000000
   12       -8.212217   1.000000
   13       -6.991129   1.000000
   14       -6.921972   1.000000
   15       -5.839664   1.000000
   16       -5.493913   1.000000
   17       -5.415467   1.000000
   18       -5.325415   1.000000
   19       -2.006365   1.000000
   20       -1.912763   1.000000
   21       -1.833498   1.000000