       N       E                     dE             d eps       ncg     rms          rms(c)
DAV:   1     0.262197490353E+03    0.26220E+03   -0.25393E+04  3200   0.121E+03
DAV:   2    -0.828051519791E+02   -0.34500E+03   -0.32948E+03  4224   0.280E+02
DAV:   3    -0.105543712654E+03   -0.22739E+02   -0.22587E+02  4056   0.731E+01
DAV:   4    -0.105820483416E+03   -0.27677E+00   -0.27647E+00  4096   0.909E+00
DAV:   5    -0.105825295050E+03   -0.48116E-02   -0.48112E-02  4112   0.111E+00    0.185E+01
DAV:   6    -0.978335541884E+02    0.79917E+01   -0.18202E+01  4032   0.215E+01    0.808E+00
DAV:   7    -0.974205777768E+02    0.41298E+00   -0.14901E+00  3984   0.619E+00    0.504E+00
DAV:   8    -0.973271410923E+02    0.93437E-01   -0.34420E-01  4048   0.280E+00    0.102E+00
DAV:   9    -0.973238736538E+02    0.32674E-02   -0.27502E-02  4064   0.995E-01    0.339E-01
DAV:  10    -0.973263394566E+02   -0.24658E-02   -0.60273E-03  3712   0.419E-01    0.110E-01
DAV:  11    -0.973268778819E+02   -0.53843E-03   -0.42464E-04  3632   0.128E-01    0.485E-02
DAV:  12    -0.973270748637E+02   -0.19698E-03   -0.21237E-04  3576   0.861E-02    0.150E-02
DAV:  13    -0.973270894604E+02   -0.14597E-04   -0.16521E-05  3864   0.258E-02    0.776E-03
DAV:  14    -0.973270890010E+02    0.45945E-06   -0.18697E-06  3856   0.754E-03    0.157E-03
DAV:  15    -0.973270892811E+02   -0.28015E-06   -0.41750E-07  3680   0.393E-03    0.925E-04
DAV:  16    -0.973270892848E+02   -0.36525E-08   -0.41701E-08  4144   0.123E-03
       N       E                     dE             d eps       ncg     rms          rms(c)
SDA:   1    -0.973270892848E+02   -0.97327E+02   -0.22722E-09  3520   0.568E-09 0.000E+00
DMP:   2    -0.973270892883E+02   -0.34870E-08   -0.38936E-08  3520   0.978E-08-0.111E-09
DMP:   3    -0.973270892925E+02   -0.42573E-08   -0.11544E-08  3520   0.171E-08 0.308E-08
DMP:   4    -0.973270892937E+02   -0.11273E-08   -0.30417E-09  3520   0.706E-09 0.142E-09
DMP:   5    -0.973270892936E+02    0.63665E-10   -0.80184E-10  3520   0.205E-09-0.116E-10
       N       E                     dE             d eps       ncg     rms          rms(c)
SDA:   1    -0.973270892936E+02    0.25352E-10   -0.49753E-04  3520   0.124E-03 0.000E+00
DMP:   2    -0.973271230091E+02   -0.33715E-04   -0.18628E-04  3520   0.236E-04 0.442E-04
DMP:   3    -0.973271311037E+02   -0.80946E-05   -0.49348E-05  3520   0.155E-04-0.610E-05
DMP:   4    -0.973271336415E+02   -0.25377E-05   -0.53527E-05  3520   0.132E-04 0.350E-06
DMP:   5    -0.973271370791E+02   -0.34376E-05   -0.28592E-05  3520   0.517E-05 0.381E-05
DMP:   6    -0.973271387044E+02   -0.16253E-05   -0.11992E-05  3520   0.249E-05 0.978E-06
DMP:   7    -0.973271393825E+02   -0.67813E-06   -0.72059E-06  3520   0.160E-05 0.393E-06
DMP:   8    -0.973271398408E+02   -0.45828E-06   -0.43219E-06  3520   0.826E-06 0.490E-06
DMP:   9    -0.973271401075E+02   -0.26669E-06   -0.20521E-06  3520   0.382E-06 0.253E-06
DMP:  10    -0.973271402342E+02   -0.12673E-06   -0.12025E-06  3520   0.238E-06 0.120E-06
DMP:  11    -0.973271403150E+02   -0.80836E-07   -0.70112E-07  3520   0.121E-06 0.104E-06
DMP:  12    -0.973271403604E+02   -0.45394E-07   -0.33384E-07  3520   0.565E-07 0.519E-07
DMP:  13    -0.973271403819E+02   -0.21465E-07   -0.18125E-07  3520   0.329E-07 0.238E-07
DMP:  14    -0.973271403941E+02   -0.12207E-07   -0.10395E-07  3520   0.177E-07 0.159E-07
DMP:  15    -0.973271404011E+02   -0.69931E-08   -0.51633E-08  3520   0.829E-08 0.889E-08
DMP:  16    -0.973271404045E+02   -0.34048E-08   -0.26205E-08  3520   0.453E-08 0.390E-08
DMP:  17    -0.973271404063E+02   -0.17628E-08   -0.15854E-08  3520   0.270E-08 0.244E-08
DMP:  18    -0.973271404074E+02   -0.11388E-08   -0.87275E-09  3520   0.134E-08 0.162E-08
DMP:  19    -0.973271404080E+02   -0.60652E-09   -0.49492E-09  3520   0.771E-09 0.898E-09
DMP:  20    -0.973271404084E+02   -0.38025E-09   -0.30673E-09  3520   0.450E-09 0.610E-09
DMP:  21    -0.973271404086E+02   -0.23422E-09   -0.17765E-09  3520   0.239E-09 0.395E-09
DMP:  22    -0.973271404087E+02   -0.11646E-09   -0.10577E-09  3520   0.140E-09 0.240E-09
DMP:  23    -0.973271404088E+02   -0.10695E-09   -0.65126E-10  3520   0.819E-10 0.156E-09
DMP:  24    -0.973271404089E+02   -0.36778E-10   -0.39850E-10  3520   0.473E-10 0.101E-09
       N       E                     dE             d eps       ncg     rms          rms(c)
SDA:   1    -0.973270892936E+02    0.51115E-04   -0.50225E-10  3520   0.126E-09 0.000E+00
DMP:   2    -0.973270892938E+02   -0.25739E-09   -0.12295E-10  3520   0.199E-10 0.284E-10
DMP:   3    -0.973270892938E+02    0.36835E-10   -0.37089E-11  3520   0.936E-11-0.230E-12
       N       E                     dE             d eps       ncg     rms          rms(c)
SDA:   1    -0.973270901132E+02   -0.81938E-06   -0.49956E-04  3520   0.125E-03 0.000E+00
DMP:   2    -0.973271229526E+02   -0.32839E-04   -0.18657E-04  3520   0.238E-04 0.439E-04
DMP:   3    -0.973271310641E+02   -0.81116E-05   -0.49776E-05  3520   0.156E-04-0.609E-05
DMP:   4    -0.973271336248E+02   -0.25607E-05   -0.53708E-05  3520   0.132E-04 0.357E-06
DMP:   5    -0.973271370712E+02   -0.34464E-05   -0.28670E-05  3520   0.519E-05 0.380E-05
DMP:   6    -0.973271386999E+02   -0.16286E-05   -0.12036E-05  3520   0.250E-05 0.975E-06
DMP:   7    -0.973271393799E+02   -0.68004E-06   -0.72285E-06  3520   0.160E-05 0.392E-06
DMP:   8    -0.973271398392E+02   -0.45931E-06   -0.43349E-06  3520   0.829E-06 0.490E-06
DMP:   9    -0.973271401066E+02   -0.26742E-06   -0.20591E-06  3520   0.383E-06 0.253E-06
DMP:  10    -0.973271402337E+02   -0.12705E-06   -0.12065E-06  3520   0.239E-06 0.120E-06
DMP:  11    -0.973271403147E+02   -0.81074E-07   -0.70317E-07  3520   0.122E-06 0.104E-06
DMP:  12    -0.973271403603E+02   -0.45512E-07   -0.33500E-07  3520   0.567E-07 0.520E-07
DMP:  13    -0.973271403818E+02   -0.21528E-07   -0.18192E-07  3520   0.331E-07 0.239E-07
DMP:  14    -0.973271403941E+02   -0.12275E-07   -0.10434E-07  3520   0.178E-07 0.160E-07
DMP:  15    -0.973271404011E+02   -0.70066E-08   -0.51851E-08  3520   0.833E-08 0.891E-08
DMP:  16    -0.973271404044E+02   -0.33506E-08   -0.26340E-08  3520   0.455E-08 0.391E-08
DMP:  17    -0.973271404063E+02   -0.18291E-08   -0.15932E-08  3520   0.271E-08 0.245E-08
DMP:  18    -0.973271404074E+02   -0.11404E-08   -0.87726E-09  3520   0.135E-08 0.163E-08
DMP:  19    -0.973271404079E+02   -0.55185E-09   -0.49752E-09  3520   0.775E-09 0.903E-09
DMP:  20    -0.973271404083E+02   -0.37981E-09   -0.30827E-09  3520   0.452E-09 0.613E-09
DMP:  21    -0.973271404086E+02   -0.25666E-09   -0.17861E-09  3520   0.240E-09 0.397E-09
DMP:  22    -0.973271404087E+02   -0.10745E-09   -0.10634E-09  3520   0.140E-09 0.242E-09
DMP:  23    -0.973271404088E+02   -0.11782E-09   -0.65472E-10  3520   0.823E-10 0.157E-09
DMP:  24    -0.973271404089E+02   -0.46143E-10   -0.40059E-10  3520   0.476E-10 0.101E-09
       N       E                     dE             d eps       ncg     rms          rms(c)
SDA:   1    -0.973270892937E+02    0.51115E-04   -0.10803E-11  2080   0.270E-11 0.000E+00
DMP:   2    -0.973270892937E+02    0.18190E-11   -0.34067E-12  2080   0.478E-12 0.978E-12
       N       E                     dE             d eps       ncg     rms          rms(c)
SDA:   1    -0.973270893865E+02   -0.92848E-07   -0.49518E-04  2080   0.124E-03 0.000E+00
DMP:   2    -0.973271254701E+02   -0.36084E-04   -0.25723E-04  2080   0.346E-04 0.571E-04
DMP:   3    -0.973271406113E+02   -0.15141E-04   -0.90120E-05  2080   0.166E-04 0.114E-04
DMP:   4    -0.973271463124E+02   -0.57011E-05   -0.63998E-05  2080   0.129E-04 0.597E-05
DMP:   5    -0.973271507637E+02   -0.44513E-05   -0.36981E-05  2080   0.600E-05 0.625E-05
DMP:   6    -0.973271532236E+02   -0.24599E-05   -0.17871E-05  2080   0.288E-05 0.305E-05
DMP:   7    -0.973271543997E+02   -0.11761E-05   -0.91001E-06  2080   0.154E-05 0.141E-05
DMP:   8    -0.973271550061E+02   -0.60636E-06   -0.49623E-06  2080   0.847E-06 0.757E-06
DMP:   9    -0.973271553451E+02   -0.33903E-06   -0.27359E-06  2080   0.448E-06 0.455E-06
DMP:  10    -0.973271555327E+02   -0.18756E-06   -0.14545E-06  2080   0.232E-06 0.253E-06
DMP:  11    -0.973271556332E+02   -0.10052E-06   -0.78138E-07  2080   0.123E-06 0.139E-06
DMP:  12    -0.973271556875E+02   -0.54232E-07   -0.41022E-07  2080   0.632E-07 0.757E-07
DMP:  13    -0.973271557160E+02   -0.28518E-07   -0.21823E-07  2080   0.337E-07 0.401E-07
DMP:  14    -0.973271557313E+02   -0.15334E-07   -0.11497E-07  2080   0.173E-07 0.220E-07
DMP:  15    -0.973271557392E+02   -0.78939E-08   -0.57275E-08  2080   0.857E-08 0.111E-07
DMP:  16    -0.973271557431E+02   -0.39446E-08   -0.29890E-08  2080   0.467E-08 0.539E-08
DMP:  17    -0.973271557453E+02   -0.21278E-08   -0.16914E-08  2080   0.263E-08 0.309E-08
DMP:  18    -0.973271557465E+02   -0.12133E-08   -0.97800E-09  2080   0.145E-08 0.191E-08
DMP:  19    -0.973271557472E+02   -0.74617E-09   -0.57914E-09  2080   0.824E-09 0.120E-08
DMP:  20    -0.973271557476E+02   -0.38986E-09   -0.33815E-09  2080   0.449E-09 0.762E-09
DMP:  21    -0.973271557479E+02   -0.29898E-09   -0.19005E-09  2080   0.240E-09 0.452E-09
DMP:  22    -0.973271557481E+02   -0.15466E-09   -0.11130E-09  2080   0.140E-09 0.266E-09
DMP:  23    -0.973271557481E+02   -0.70955E-10   -0.68454E-10  2080   0.836E-10 0.168E-09
   1 F= -.99298976E+02 E0= -.99298976E+02  d E =0.000000E+00
