 vasp.5.4.4.18Apr17-6-g9f103f2a35 (build Nov 16 2021 14:02:39) complex           
 executed on     LinuxGNU_vivaldi date 2024.09.14  12:38:33
 running on    8 total cores
 distrk:  each k-point on    8 cores,    1 groups
 distr:  one band on NCORES_PER_BAND=   1 cores,    8 groups


--------------------------------------------------------------------------------------------------------


 INCAR:
 POTCAR:    PAW_PBE C 08Apr2002                   
 POTCAR:    PAW_PBE O 08Apr2002                   
 POTCAR:    PAW_PBE N 08Apr2002                   
 POTCAR:    PAW_PBE H 15Jun2001                   

 ----------------------------------------------------------------------------- 
|                                                                             |
|           W    W    AA    RRRRR   N    N  II  N    N   GGGG   !!!           |
|           W    W   A  A   R    R  NN   N  II  NN   N  G    G  !!!           |
|           W    W  A    A  R    R  N N  N  II  N N  N  G       !!!           |
|           W WW W  AAAAAA  RRRRR   N  N N  II  N  N N  G  GGG   !            |
|           WW  WW  A    A  R   R   N   NN  II  N   NN  G    G                |
|           W    W  A    A  R    R  N    N  II  N    N   GGGG   !!!           |
|                                                                             |
|      For optimal performance we recommend to set                            |
|        NCORE= 4 - approx SQRT( number of cores)                             |
|      NCORE specifies how many cores store one orbital (NPAR=cpu/NCORE).     |
|      This setting can  greatly improve the performance of VASP for DFT.     |
|      The default,   NCORE=1            might be grossly inefficient         |
|      on modern multi-core architectures or massively parallel machines.     |
|      Do your own testing !!!!                                               |
|      Unfortunately you need to use the default for GW and RPA calculations. |
|      (for HF NCORE is supported but not extensively tested yet)             |
|                                                                             |
 ----------------------------------------------------------------------------- 

 POTCAR:    PAW_PBE C 08Apr2002                   
   VRHFIN =C: s2p2                                                              
   LEXCH  = PE                                                                  
   EATOM  =   147.1560 eV,   10.8157 Ry                                         
                                                                                
   TITEL  = PAW_PBE C 08Apr2002                                                 
   LULTRA =        F    use ultrasoft PP ?                                      
   IUNSCR =        1    unscreen: 0-lin 1-nonlin 2-no                           
   RPACOR =    1.200    partial core radius                                     
   POMASS =   12.011; ZVAL   =    4.000    mass and valenz                      
   RCORE  =    1.500    outmost cutoff radius                                   
   RWIGS  =    1.630; RWIGS  =    0.863    wigner-seitz radius (au A)           
   ENMAX  =  400.000; ENMIN  =  300.000 eV                                      
   ICORE  =        2    local potential                                         
   LCOR   =        T    correct aug charges                                     
   LPAW   =        T    paw PP                                                  
   EAUG   =  644.873                                                            
   DEXC   =    0.000                                                            
   RMAX   =    1.529    core radius for proj-oper                               
   RAUG   =    1.300    factor for augmentation sphere                          
   RDEP   =    1.501    radius for radial grids                                 
   RDEPT  =    1.300    core radius for aug-charge                              
                                                                                
   Atomic configuration                                                         
    4 entries                                                                   
     n  l   j            E        occ.                                          
     1  0  0.50      -273.3789   2.0000                                         
     2  0  0.50       -13.7508   2.0000                                         
     2  1  0.50        -5.2854   2.0000                                         
     3  2  1.50        -5.4423   0.0000                                         
   Description                                                                  
     l       E           TYP  RCUT    TYP  RCUT                                 
     0    -13.7508458     23  1.200                                             
     0     -8.2022199     23  1.200                                             
     1     -5.2854383     23  1.500                                             
     1     34.0145650     23  1.500                                             
     2     -5.4423304      7  1.500                                             
  local pseudopotential read in
  partial core-charges read in
  partial kinetic energy density read in
  atomic valenz-charges read in
  non local Contribution for L=           0  read in
    real space projection operators read in
  non local Contribution for L=           0  read in
    real space projection operators read in
  non local Contribution for L=           1  read in
    real space projection operators read in
  non local Contribution for L=           1  read in
    real space projection operators read in
    PAW grid and wavefunctions read in

   number of l-projection  operators is LMAX  =           4
   number of lm-projection operators is LMMAX =           8

 POTCAR:    PAW_PBE O 08Apr2002                   
   VRHFIN =O: s2p4                                                              
   LEXCH  = PE                                                                  
   EATOM  =   432.3788 eV,   31.7789 Ry                                         
                                                                                
   TITEL  = PAW_PBE O 08Apr2002                                                 
   LULTRA =        F    use ultrasoft PP ?                                      
   IUNSCR =        1    unscreen: 0-lin 1-nonlin 2-no                           
   RPACOR =    1.200    partial core radius                                     
   POMASS =   16.000; ZVAL   =    6.000    mass and valenz                      
   RCORE  =    1.520    outmost cutoff radius                                   
   RWIGS  =    1.550; RWIGS  =    0.820    wigner-seitz radius (au A)           
   ENMAX  =  400.000; ENMIN  =  300.000 eV                                      
   ICORE  =        2    local potential                                         
   LCOR   =        T    correct aug charges                                     
   LPAW   =        T    paw PP                                                  
   EAUG   =  605.392                                                            
   DEXC   =    0.000                                                            
   RMAX   =    1.553    core radius for proj-oper                               
   RAUG   =    1.300    factor for augmentation sphere                          
   RDEP   =    1.550    radius for radial grids                                 
   RDEPT  =    1.329    core radius for aug-charge                              
                                                                                
   Atomic configuration                                                         
    4 entries                                                                   
     n  l   j            E        occ.                                          
     1  0  0.50      -514.6923   2.0000                                         
     2  0  0.50       -23.9615   2.0000                                         
     2  1  0.50        -9.0305   4.0000                                         
     3  2  1.50        -9.5241   0.0000                                         
   Description                                                                  
     l       E           TYP  RCUT    TYP  RCUT                                 
     0    -23.9615318     23  1.200                                             
     0     -9.5240782     23  1.200                                             
     1     -9.0304911     23  1.520                                             
     1      8.1634956     23  1.520                                             
     2     -9.5240782      7  1.500                                             
  local pseudopotential read in
  partial core-charges read in
  partial kinetic energy density read in
  kinetic energy density of atom read in
  atomic valenz-charges read in
  non local Contribution for L=           0  read in
    real space projection operators read in
  non local Contribution for L=           0  read in
    real space projection operators read in
  non local Contribution for L=           1  read in
    real space projection operators read in
  non local Contribution for L=           1  read in
    real space projection operators read in
    PAW grid and wavefunctions read in

   number of l-projection  operators is LMAX  =           4
   number of lm-projection operators is LMMAX =           8

 POTCAR:    PAW_PBE N 08Apr2002                   
   VRHFIN =N: s2p3                                                              
   LEXCH  = PE                                                                  
   EATOM  =   264.5486 eV,   19.4438 Ry                                         
                                                                                
   TITEL  = PAW_PBE N 08Apr2002                                                 
   LULTRA =        F    use ultrasoft PP ?                                      
   IUNSCR =        1    unscreen: 0-lin 1-nonlin 2-no                           
   RPACOR =    1.200    partial core radius                                     
   POMASS =   14.001; ZVAL   =    5.000    mass and valenz                      
   RCORE  =    1.500    outmost cutoff radius                                   
   RWIGS  =    1.400; RWIGS  =    0.741    wigner-seitz radius (au A)           
   ENMAX  =  400.000; ENMIN  =  300.000 eV                                      
   ICORE  =        2    local potential                                         
   LCOR   =        T    correct aug charges                                     
   LPAW   =        T    paw PP                                                  
   EAUG   =  627.112                                                            
   DEXC   =    0.000                                                            
   RMAX   =    1.529    core radius for proj-oper                               
   RAUG   =    1.300    factor for augmentation sphere                          
   RDEP   =    1.514    radius for radial grids                                 
   RDEPT  =    1.338    core radius for aug-charge                              
                                                                                
   Atomic configuration                                                         
    4 entries                                                                   
     n  l   j            E        occ.                                          
     1  0  0.50      -384.7179   2.0000                                         
     2  0  0.50       -18.5828   2.0000                                         
     2  1  0.50        -7.0898   3.0000                                         
     3  2  1.50        -6.8029   0.0000                                         
   Description                                                                  
     l       E           TYP  RCUT    TYP  RCUT                                 
     0    -18.5828119     23  1.200                                             
     0    -13.5018863     23  1.200                                             
     1     -7.0897853     23  1.500                                             
     1      9.5240782     23  1.500                                             
     2     -6.8029130      7  1.500                                             
  local pseudopotential read in
  partial core-charges read in
  partial kinetic energy density read in
  atomic valenz-charges read in
  non local Contribution for L=           0  read in
    real space projection operators read in
  non local Contribution for L=           0  read in
    real space projection operators read in
  non local Contribution for L=           1  read in
    real space projection operators read in
  non local Contribution for L=           1  read in
    real space projection operators read in
    PAW grid and wavefunctions read in

   number of l-projection  operators is LMAX  =           4
   number of lm-projection operators is LMMAX =           8

 POTCAR:    PAW_PBE H 15Jun2001                   
   VRHFIN =H: ultrasoft test                                                    
   LEXCH  = PE                                                                  
   EATOM  =    12.4884 eV,    0.9179 Ry                                         
                                                                                
   TITEL  = PAW_PBE H 15Jun2001                                                 
   LULTRA =        F    use ultrasoft PP ?                                      
   IUNSCR =        0    unscreen: 0-lin 1-nonlin 2-no                           
   RPACOR =    0.000    partial core radius                                     
   POMASS =    1.000; ZVAL   =    1.000    mass and valenz                      
   RCORE  =    1.100    outmost cutoff radius                                   
   RWIGS  =    0.700; RWIGS  =    0.370    wigner-seitz radius (au A)           
   ENMAX  =  250.000; ENMIN  =  200.000 eV                                      
   RCLOC  =    0.701    cutoff for local pot                                    
   LCOR   =        T    correct aug charges                                     
   LPAW   =        T    paw PP                                                  
   EAUG   =  400.000                                                            
   RMAX   =    1.123    core radius for proj-oper                               
   RAUG   =    1.200    factor for augmentation sphere                          
   RDEP   =    1.112    radius for radial grids                                 
   RDEPT  =    0.926    core radius for aug-charge                              
                                                                                
   Atomic configuration                                                         
    2 entries                                                                   
     n  l   j            E        occ.                                          
     1  0  0.50        -6.4927   1.0000                                         
     2  1  0.50        -3.4015   0.0000                                         
   Description                                                                  
     l       E           TYP  RCUT    TYP  RCUT                                 
     0     -6.4927494     23  1.100                                             
     0      6.8029130     23  1.100                                             
     1     -4.0817478     23  1.100                                             
  local pseudopotential read in
  atomic valenz-charges read in
  non local Contribution for L=           0  read in
    real space projection operators read in
  non local Contribution for L=           0  read in
    real space projection operators read in
  non local Contribution for L=           1  read in
    real space projection operators read in
    PAW grid and wavefunctions read in

   number of l-projection  operators is LMAX  =           3
   number of lm-projection operators is LMMAX =           5

  PAW_PBE C 08Apr2002                   :
 energy of atom  1       EATOM= -147.1560
 kinetic energy error for atom=    0.0057 (will be added to EATOM!!)
  PAW_PBE O 08Apr2002                   :
 energy of atom  2       EATOM= -432.3788
 kinetic energy error for atom=    0.0168 (will be added to EATOM!!)
  PAW_PBE N 08Apr2002                   :
 energy of atom  3       EATOM= -264.5486
 kinetic energy error for atom=    0.0103 (will be added to EATOM!!)
  PAW_PBE H 15Jun2001                   :
 energy of atom  4       EATOM=  -12.4884
 kinetic energy error for atom=    0.0004 (will be added to EATOM!!)


 POSCAR: Generated by cif2cell 2.0.0. Urea :  Gut
  positions in direct lattice
  velocities in cartesian coordinates
 exchange correlation table for  LEXCH =        8
   RHO(1)=    0.500       N(1)  =     2000
   RHO(2)=  100.500       N(2)  =     4000



--------------------------------------------------------------------------------------------------------


 ion  position               nearest neighbor table
   1  0.000  0.500  0.327-   3 1.28   5 1.35   7 1.35
   2  0.500  0.000  0.673-   4 1.28   6 1.35   8 1.35
   3  0.000  0.500  0.602-   1 1.28
   4  0.500  0.000  0.398-   2 1.28
   5  0.148  0.648  0.177-  13 1.02   9 1.02   1 1.35
   6  0.648  0.852  0.823-  14 1.02  10 1.02   2 1.35
   7  0.852  0.352  0.177-  15 1.02  11 1.02   1 1.35
   8  0.352  0.148  0.823-  16 1.02  12 1.02   2 1.35
   9  0.262  0.762  0.282-   5 1.02
  10  0.762  0.738  0.718-   6 1.02
  11  0.738  0.238  0.282-   7 1.02
  12  0.238  0.262  0.718-   8 1.02
  13  0.145  0.645  0.957-   5 1.02
  14  0.645  0.855  0.043-   6 1.02
  15  0.855  0.355  0.957-   7 1.02
  16  0.355  0.145  0.043-   8 1.02

  LATTYP: Found a simple tetragonal cell.
 ALAT       =     5.5194662600
 C/A-ratio  =     0.8424067900
  
  Lattice vectors:
  
 A1 = (   5.5194662600,   0.0000000000,   0.0000000000)
 A2 = (   0.0000000000,   5.5194662600,   0.0000000000)
 A3 = (   0.0000000000,   0.0000000000,   4.6496358547)


Analysis of symmetry for initial positions (statically):
=====================================================================
 Subroutine PRICEL returns:
 Original cell was already a primitive cell.
 

 Routine SETGRP: Setting up the symmetry group for a 
 simple tetragonal supercell.


 Subroutine GETGRP returns: Found  8 space group operations
 (whereof  4 operations were pure point group operations)
 out of a pool of 16 trial point group operations.


The static configuration has the point symmetry S_4 .
 The point group associated with its full space group is D_2d.


Analysis of symmetry for dynamics (positions and initial velocities):
=====================================================================
 Subroutine PRICEL returns:
 Original cell was already a primitive cell.
 

 Routine SETGRP: Setting up the symmetry group for a 
 simple tetragonal supercell.


 Subroutine GETGRP returns: Found  8 space group operations
 (whereof  4 operations were pure point group operations)
 out of a pool of 16 trial point group operations.


The dynamic configuration has the point symmetry S_4 .
 The point group associated with its full space group is D_2d.


 Subroutine INISYM returns: Found  8 space group operations
 (whereof  4 operations are pure point group operations),
 and found     1 'primitive' translations



 KPOINTS: Generated by cif2cell 2.0.0. k-space res

Automatic generation of k-mesh.
Space group operators:
 irot       det(A)        alpha          n_x          n_y          n_z        tau_x        tau_y        tau_z
    1     1.000000     0.000000     1.000000     0.000000     0.000000     0.000000     0.000000     0.000000
    2    -1.000000    90.000000     0.000000     0.000000    -1.000000     0.000000     0.000000     0.000000
    3     1.000000   180.000000     0.000000     0.000000     1.000000     0.000000     0.000000     0.000000
    4    -1.000000    90.000000     0.000000     0.000000     1.000000     0.000000     0.000000     0.000000
    5     1.000000   180.000000     0.000000     1.000000     0.000000     0.500000     0.500000     0.000000
    6    -1.000000   180.000000     0.707107     0.707107     0.000000     0.500000     0.500000     0.000000
    7     1.000000   180.000000     1.000000     0.000000     0.000000     0.500000     0.500000     0.000000
    8    -1.000000   180.000000     0.707107    -0.707107     0.000000     0.500000     0.500000     0.000000
 
 Subroutine IBZKPT returns following result:
 ===========================================
 
 Found     40 irreducible k-points:
 
 Following reciprocal coordinates:
            Coordinates               Weight
  0.000000  0.000000  0.000000      1.000000
  0.166667  0.000000  0.000000      4.000000
  0.333333  0.000000  0.000000      4.000000
  0.500000  0.000000  0.000000      2.000000
  0.166667  0.166667  0.000000      4.000000
  0.333333  0.166667  0.000000      8.000000
  0.500000  0.166667  0.000000      4.000000
  0.333333  0.333333  0.000000      4.000000
  0.500000  0.333333  0.000000      4.000000
  0.500000  0.500000  0.000000      1.000000
  0.000000  0.000000  0.142857      2.000000
  0.166667  0.000000  0.142857      8.000000
  0.333333  0.000000  0.142857      8.000000
  0.500000  0.000000  0.142857      4.000000
  0.166667  0.166667  0.142857      8.000000
  0.333333  0.166667  0.142857     16.000000
  0.500000  0.166667  0.142857      8.000000
  0.333333  0.333333  0.142857      8.000000
  0.500000  0.333333  0.142857      8.000000
  0.500000  0.500000  0.142857      2.000000
  0.000000  0.000000  0.285714      2.000000
  0.166667  0.000000  0.285714      8.000000
  0.333333  0.000000  0.285714      8.000000
  0.500000  0.000000  0.285714      4.000000
  0.166667  0.166667  0.285714      8.000000
  0.333333  0.166667  0.285714     16.000000
  0.500000  0.166667  0.285714      8.000000
  0.333333  0.333333  0.285714      8.000000
  0.500000  0.333333  0.285714      8.000000
  0.500000  0.500000  0.285714      2.000000
  0.000000  0.000000  0.428571      2.000000
  0.166667  0.000000  0.428571      8.000000
  0.333333  0.000000  0.428571      8.000000
  0.500000  0.000000  0.428571      4.000000
  0.166667  0.166667  0.428571      8.000000
  0.333333  0.166667  0.428571     16.000000
  0.500000  0.166667  0.428571      8.000000
  0.333333  0.333333  0.428571      8.000000
  0.500000  0.333333  0.428571      8.000000
  0.500000  0.500000  0.428571      2.000000
 
 Following cartesian coordinates:
            Coordinates               Weight
  0.000000  0.000000  0.000000      1.000000
  0.168253  0.000000  0.000000      4.000000
  0.336506  0.000000  0.000000      4.000000
  0.504759  0.000000  0.000000      2.000000
  0.168253  0.168253  0.000000      4.000000
  0.336506  0.168253  0.000000      8.000000
  0.504759  0.168253  0.000000      4.000000
  0.336506  0.336506  0.000000      4.000000
  0.504759  0.336506  0.000000      4.000000
  0.504759  0.504759  0.000000      1.000000
  0.000000  0.000000  0.171196      2.000000
  0.168253  0.000000  0.171196      8.000000
  0.336506  0.000000  0.171196      8.000000
  0.504759  0.000000  0.171196      4.000000
  0.168253  0.168253  0.171196      8.000000
  0.336506  0.168253  0.171196     16.000000
  0.504759  0.168253  0.171196      8.000000
  0.336506  0.336506  0.171196      8.000000
  0.504759  0.336506  0.171196      8.000000
  0.504759  0.504759  0.171196      2.000000
  0.000000  0.000000  0.342392      2.000000
  0.168253  0.000000  0.342392      8.000000
  0.336506  0.000000  0.342392      8.000000
  0.504759  0.000000  0.342392      4.000000
  0.168253  0.168253  0.342392      8.000000
  0.336506  0.168253  0.342392     16.000000
  0.504759  0.168253  0.342392      8.000000
  0.336506  0.336506  0.342392      8.000000
  0.504759  0.336506  0.342392      8.000000
  0.504759  0.504759  0.342392      2.000000
  0.000000  0.000000  0.513589      2.000000
  0.168253  0.000000  0.513589      8.000000
  0.336506  0.000000  0.513589      8.000000
  0.504759  0.000000  0.513589      4.000000
  0.168253  0.168253  0.513589      8.000000
  0.336506  0.168253  0.513589     16.000000
  0.504759  0.168253  0.513589      8.000000
  0.336506  0.336506  0.513589      8.000000
  0.504759  0.336506  0.513589      8.000000
  0.504759  0.504759  0.513589      2.000000
 
 TETIRR: Found    381 inequivalent tetrahedra from     1512
 
 Subroutine IBZKPT_HF returns following result:
 ==============================================
 
 Found    252 k-points in 1st BZ
 the following    252 k-points will be used (e.g. in the exchange kernel)
 Following reciprocal coordinates:   # in IRBZ
  0.000000  0.000000  0.000000    0.00396825   1 t-inv F
  0.166667  0.000000  0.000000    0.00396825   2 t-inv F
  0.333333  0.000000  0.000000    0.00396825   3 t-inv F
  0.500000  0.000000  0.000000    0.00396825   4 t-inv F
  0.166667  0.166667  0.000000    0.00396825   5 t-inv F
  0.333333  0.166667  0.000000    0.00396825   6 t-inv F
  0.500000  0.166667  0.000000    0.00396825   7 t-inv F
  0.333333  0.333333  0.000000    0.00396825   8 t-inv F
  0.500000  0.333333  0.000000    0.00396825   9 t-inv F
  0.500000  0.500000  0.000000    0.00396825  10 t-inv F
  0.000000  0.000000  0.142857    0.00396825  11 t-inv F
  0.166667  0.000000  0.142857    0.00396825  12 t-inv F
  0.333333  0.000000  0.142857    0.00396825  13 t-inv F
  0.500000  0.000000  0.142857    0.00396825  14 t-inv F
  0.166667  0.166667  0.142857    0.00396825  15 t-inv F
  0.333333  0.166667  0.142857    0.00396825  16 t-inv F
  0.500000  0.166667  0.142857    0.00396825  17 t-inv F
  0.333333  0.333333  0.142857    0.00396825  18 t-inv F
  0.500000  0.333333  0.142857    0.00396825  19 t-inv F
  0.500000  0.500000  0.142857    0.00396825  20 t-inv F
  0.000000  0.000000  0.285714    0.00396825  21 t-inv F
  0.166667  0.000000  0.285714    0.00396825  22 t-inv F
  0.333333  0.000000  0.285714    0.00396825  23 t-inv F
  0.500000  0.000000  0.285714    0.00396825  24 t-inv F
  0.166667  0.166667  0.285714    0.00396825  25 t-inv F
  0.333333  0.166667  0.285714    0.00396825  26 t-inv F
  0.500000  0.166667  0.285714    0.00396825  27 t-inv F
  0.333333  0.333333  0.285714    0.00396825  28 t-inv F
  0.500000  0.333333  0.285714    0.00396825  29 t-inv F
  0.500000  0.500000  0.285714    0.00396825  30 t-inv F
  0.000000  0.000000  0.428571    0.00396825  31 t-inv F
  0.166667  0.000000  0.428571    0.00396825  32 t-inv F
  0.333333  0.000000  0.428571    0.00396825  33 t-inv F
  0.500000  0.000000  0.428571    0.00396825  34 t-inv F
  0.166667  0.166667  0.428571    0.00396825  35 t-inv F
  0.333333  0.166667  0.428571    0.00396825  36 t-inv F
  0.500000  0.166667  0.428571    0.00396825  37 t-inv F
  0.333333  0.333333  0.428571    0.00396825  38 t-inv F
  0.500000  0.333333  0.428571    0.00396825  39 t-inv F
  0.500000  0.500000  0.428571    0.00396825  40 t-inv F
  0.000000 -0.166667 -0.000000    0.00396825   2 t-inv F
 -0.166667 -0.000000  0.000000    0.00396825   2 t-inv F
 -0.000000  0.166667 -0.000000    0.00396825   2 t-inv F
  0.000000 -0.333333 -0.000000    0.00396825   3 t-inv F
 -0.333333 -0.000000  0.000000    0.00396825   3 t-inv F
 -0.000000  0.333333 -0.000000    0.00396825   3 t-inv F
  0.000000 -0.500000 -0.000000    0.00396825   4 t-inv F
  0.166667 -0.166667 -0.000000    0.00396825   5 t-inv F
 -0.166667 -0.166667  0.000000    0.00396825   5 t-inv F
 -0.166667  0.166667 -0.000000    0.00396825   5 t-inv F
  0.166667 -0.333333 -0.000000    0.00396825   6 t-inv F
 -0.333333 -0.166667  0.000000    0.00396825   6 t-inv F
 -0.166667  0.333333 -0.000000    0.00396825   6 t-inv F
 -0.333333  0.166667 -0.000000    0.00396825   6 t-inv F
 -0.166667 -0.333333  0.000000    0.00396825   6 t-inv F
  0.333333 -0.166667 -0.000000    0.00396825   6 t-inv F
  0.166667  0.333333  0.000000    0.00396825   6 t-inv F
  0.166667 -0.500000 -0.000000    0.00396825   7 t-inv F
 -0.500000 -0.166667  0.000000    0.00396825   7 t-inv F
 -0.166667  0.500000 -0.000000    0.00396825   7 t-inv F
  0.333333 -0.333333 -0.000000    0.00396825   8 t-inv F
 -0.333333 -0.333333  0.000000    0.00396825   8 t-inv F
 -0.333333  0.333333 -0.000000    0.00396825   8 t-inv F
  0.333333 -0.500000 -0.000000    0.00396825   9 t-inv F
 -0.500000 -0.333333  0.000000    0.00396825   9 t-inv F
 -0.333333  0.500000 -0.000000    0.00396825   9 t-inv F
  0.000000 -0.000000 -0.142857    0.00396825  11 t-inv F
  0.000000 -0.166667 -0.142857    0.00396825  12 t-inv F
 -0.166667 -0.000000  0.142857    0.00396825  12 t-inv F
 -0.000000  0.166667 -0.142857    0.00396825  12 t-inv F
 -0.166667  0.000000 -0.142857    0.00396825  12 t-inv F
 -0.000000 -0.166667  0.142857    0.00396825  12 t-inv F
  0.166667 -0.000000 -0.142857    0.00396825  12 t-inv F
  0.000000  0.166667  0.142857    0.00396825  12 t-inv F
  0.000000 -0.333333 -0.142857    0.00396825  13 t-inv F
 -0.333333 -0.000000  0.142857    0.00396825  13 t-inv F
 -0.000000  0.333333 -0.142857    0.00396825  13 t-inv F
 -0.333333  0.000000 -0.142857    0.00396825  13 t-inv F
 -0.000000 -0.333333  0.142857    0.00396825  13 t-inv F
  0.333333 -0.000000 -0.142857    0.00396825  13 t-inv F
  0.000000  0.333333  0.142857    0.00396825  13 t-inv F
  0.000000 -0.500000 -0.142857    0.00396825  14 t-inv F
 -0.500000  0.000000 -0.142857    0.00396825  14 t-inv F
 -0.000000 -0.500000  0.142857    0.00396825  14 t-inv F
  0.166667 -0.166667 -0.142857    0.00396825  15 t-inv F
 -0.166667 -0.166667  0.142857    0.00396825  15 t-inv F
 -0.166667  0.166667 -0.142857    0.00396825  15 t-inv F
  0.166667 -0.333333 -0.142857    0.00396825  16 t-inv F
 -0.333333 -0.166667  0.142857    0.00396825  16 t-inv F
 -0.166667  0.333333 -0.142857    0.00396825  16 t-inv F
 -0.333333  0.166667 -0.142857    0.00396825  16 t-inv F
 -0.166667 -0.333333  0.142857    0.00396825  16 t-inv F
  0.333333 -0.166667 -0.142857    0.00396825  16 t-inv F
  0.166667  0.333333  0.142857    0.00396825  16 t-inv F
  0.166667 -0.500000 -0.142857    0.00396825  17 t-inv F
 -0.500000 -0.166667  0.142857    0.00396825  17 t-inv F
 -0.166667  0.500000 -0.142857    0.00396825  17 t-inv F
 -0.500000  0.166667 -0.142857    0.00396825  17 t-inv F
 -0.166667 -0.500000  0.142857    0.00396825  17 t-inv F
  0.500000 -0.166667 -0.142857    0.00396825  17 t-inv F
  0.166667  0.500000  0.142857    0.00396825  17 t-inv F
  0.333333 -0.333333 -0.142857    0.00396825  18 t-inv F
 -0.333333 -0.333333  0.142857    0.00396825  18 t-inv F
 -0.333333  0.333333 -0.142857    0.00396825  18 t-inv F
  0.333333 -0.500000 -0.142857    0.00396825  19 t-inv F
 -0.500000 -0.333333  0.142857    0.00396825  19 t-inv F
 -0.333333  0.500000 -0.142857    0.00396825  19 t-inv F
 -0.500000  0.333333 -0.142857    0.00396825  19 t-inv F
 -0.333333 -0.500000  0.142857    0.00396825  19 t-inv F
  0.500000 -0.333333 -0.142857    0.00396825  19 t-inv F
  0.333333  0.500000  0.142857    0.00396825  19 t-inv F
  0.500000 -0.500000 -0.142857    0.00396825  20 t-inv F
  0.000000 -0.000000 -0.285714    0.00396825  21 t-inv F
  0.000000 -0.166667 -0.285714    0.00396825  22 t-inv F
 -0.166667 -0.000000  0.285714    0.00396825  22 t-inv F
 -0.000000  0.166667 -0.285714    0.00396825  22 t-inv F
 -0.166667  0.000000 -0.285714    0.00396825  22 t-inv F
 -0.000000 -0.166667  0.285714    0.00396825  22 t-inv F
  0.166667 -0.000000 -0.285714    0.00396825  22 t-inv F
  0.000000  0.166667  0.285714    0.00396825  22 t-inv F
  0.000000 -0.333333 -0.285714    0.00396825  23 t-inv F
 -0.333333 -0.000000  0.285714    0.00396825  23 t-inv F
 -0.000000  0.333333 -0.285714    0.00396825  23 t-inv F
 -0.333333  0.000000 -0.285714    0.00396825  23 t-inv F
 -0.000000 -0.333333  0.285714    0.00396825  23 t-inv F
  0.333333 -0.000000 -0.285714    0.00396825  23 t-inv F
  0.000000  0.333333  0.285714    0.00396825  23 t-inv F
  0.000000 -0.500000 -0.285714    0.00396825  24 t-inv F
 -0.500000  0.000000 -0.285714    0.00396825  24 t-inv F
 -0.000000 -0.500000  0.285714    0.00396825  24 t-inv F
  0.166667 -0.166667 -0.285714    0.00396825  25 t-inv F
 -0.166667 -0.166667  0.285714    0.00396825  25 t-inv F
 -0.166667  0.166667 -0.285714    0.00396825  25 t-inv F
  0.166667 -0.333333 -0.285714    0.00396825  26 t-inv F
 -0.333333 -0.166667  0.285714    0.00396825  26 t-inv F
 -0.166667  0.333333 -0.285714    0.00396825  26 t-inv F
 -0.333333  0.166667 -0.285714    0.00396825  26 t-inv F
 -0.166667 -0.333333  0.285714    0.00396825  26 t-inv F
  0.333333 -0.166667 -0.285714    0.00396825  26 t-inv F
  0.166667  0.333333  0.285714    0.00396825  26 t-inv F
  0.166667 -0.500000 -0.285714    0.00396825  27 t-inv F
 -0.500000 -0.166667  0.285714    0.00396825  27 t-inv F
 -0.166667  0.500000 -0.285714    0.00396825  27 t-inv F
 -0.500000  0.166667 -0.285714    0.00396825  27 t-inv F
 -0.166667 -0.500000  0.285714    0.00396825  27 t-inv F
  0.500000 -0.166667 -0.285714    0.00396825  27 t-inv F
  0.166667  0.500000  0.285714    0.00396825  27 t-inv F
  0.333333 -0.333333 -0.285714    0.00396825  28 t-inv F
 -0.333333 -0.333333  0.285714    0.00396825  28 t-inv F
 -0.333333  0.333333 -0.285714    0.00396825  28 t-inv F
  0.333333 -0.500000 -0.285714    0.00396825  29 t-inv F
 -0.500000 -0.333333  0.285714    0.00396825  29 t-inv F
 -0.333333  0.500000 -0.285714    0.00396825  29 t-inv F
 -0.500000  0.333333 -0.285714    0.00396825  29 t-inv F
 -0.333333 -0.500000  0.285714    0.00396825  29 t-inv F
  0.500000 -0.333333 -0.285714    0.00396825  29 t-inv F
  0.333333  0.500000  0.285714    0.00396825  29 t-inv F
  0.500000 -0.500000 -0.285714    0.00396825  30 t-inv F
  0.000000 -0.000000 -0.428571    0.00396825  31 t-inv F
  0.000000 -0.166667 -0.428571    0.00396825  32 t-inv F
 -0.166667 -0.000000  0.428571    0.00396825  32 t-inv F
 -0.000000  0.166667 -0.428571    0.00396825  32 t-inv F
 -0.166667  0.000000 -0.428571    0.00396825  32 t-inv F
 -0.000000 -0.166667  0.428571    0.00396825  32 t-inv F
  0.166667 -0.000000 -0.428571    0.00396825  32 t-inv F
  0.000000  0.166667  0.428571    0.00396825  32 t-inv F
  0.000000 -0.333333 -0.428571    0.00396825  33 t-inv F
 -0.333333 -0.000000  0.428571    0.00396825  33 t-inv F
 -0.000000  0.333333 -0.428571    0.00396825  33 t-inv F
 -0.333333  0.000000 -0.428571    0.00396825  33 t-inv F
 -0.000000 -0.333333  0.428571    0.00396825  33 t-inv F
  0.333333 -0.000000 -0.428571    0.00396825  33 t-inv F
  0.000000  0.333333  0.428571    0.00396825  33 t-inv F
  0.000000 -0.500000 -0.428571    0.00396825  34 t-inv F
 -0.500000  0.000000 -0.428571    0.00396825  34 t-inv F
 -0.000000 -0.500000  0.428571    0.00396825  34 t-inv F
  0.166667 -0.166667 -0.428571    0.00396825  35 t-inv F
 -0.166667 -0.166667  0.428571    0.00396825  35 t-inv F
 -0.166667  0.166667 -0.428571    0.00396825  35 t-inv F
  0.166667 -0.333333 -0.428571    0.00396825  36 t-inv F
 -0.333333 -0.166667  0.428571    0.00396825  36 t-inv F
 -0.166667  0.333333 -0.428571    0.00396825  36 t-inv F
 -0.333333  0.166667 -0.428571    0.00396825  36 t-inv F
 -0.166667 -0.333333  0.428571    0.00396825  36 t-inv F
  0.333333 -0.166667 -0.428571    0.00396825  36 t-inv F
  0.166667  0.333333  0.428571    0.00396825  36 t-inv F
  0.166667 -0.500000 -0.428571    0.00396825  37 t-inv F
 -0.500000 -0.166667  0.428571    0.00396825  37 t-inv F
 -0.166667  0.500000 -0.428571    0.00396825  37 t-inv F
 -0.500000  0.166667 -0.428571    0.00396825  37 t-inv F
 -0.166667 -0.500000  0.428571    0.00396825  37 t-inv F
  0.500000 -0.166667 -0.428571    0.00396825  37 t-inv F
  0.166667  0.500000  0.428571    0.00396825  37 t-inv F
  0.333333 -0.333333 -0.428571    0.00396825  38 t-inv F
 -0.333333 -0.333333  0.428571    0.00396825  38 t-inv F
 -0.333333  0.333333 -0.428571    0.00396825  38 t-inv F
  0.333333 -0.500000 -0.428571    0.00396825  39 t-inv F
 -0.500000 -0.333333  0.428571    0.00396825  39 t-inv F
 -0.333333  0.500000 -0.428571    0.00396825  39 t-inv F
 -0.500000  0.333333 -0.428571    0.00396825  39 t-inv F
 -0.333333 -0.500000  0.428571    0.00396825  39 t-inv F
  0.500000 -0.333333 -0.428571    0.00396825  39 t-inv F
  0.333333  0.500000  0.428571    0.00396825  39 t-inv F
  0.500000 -0.500000 -0.428571    0.00396825  40 t-inv F
 -0.166667 -0.166667 -0.142857    0.00396825  15 t-inv T
 -0.166667  0.166667  0.142857    0.00396825  15 t-inv T
  0.166667  0.166667 -0.142857    0.00396825  15 t-inv T
  0.166667 -0.166667  0.142857    0.00396825  15 t-inv T
 -0.333333 -0.166667 -0.142857    0.00396825  16 t-inv T
 -0.166667  0.333333  0.142857    0.00396825  16 t-inv T
  0.333333  0.166667 -0.142857    0.00396825  16 t-inv T
  0.166667 -0.333333  0.142857    0.00396825  16 t-inv T
  0.333333 -0.166667  0.142857    0.00396825  16 t-inv T
  0.166667  0.333333 -0.142857    0.00396825  16 t-inv T
 -0.333333  0.166667  0.142857    0.00396825  16 t-inv T
 -0.166667 -0.333333 -0.142857    0.00396825  16 t-inv T
 -0.333333 -0.333333 -0.142857    0.00396825  18 t-inv T
 -0.333333  0.333333  0.142857    0.00396825  18 t-inv T
  0.333333  0.333333 -0.142857    0.00396825  18 t-inv T
  0.333333 -0.333333  0.142857    0.00396825  18 t-inv T
 -0.166667 -0.166667 -0.285714    0.00396825  25 t-inv T
 -0.166667  0.166667  0.285714    0.00396825  25 t-inv T
  0.166667  0.166667 -0.285714    0.00396825  25 t-inv T
  0.166667 -0.166667  0.285714    0.00396825  25 t-inv T
 -0.333333 -0.166667 -0.285714    0.00396825  26 t-inv T
 -0.166667  0.333333  0.285714    0.00396825  26 t-inv T
  0.333333  0.166667 -0.285714    0.00396825  26 t-inv T
  0.166667 -0.333333  0.285714    0.00396825  26 t-inv T
  0.333333 -0.166667  0.285714    0.00396825  26 t-inv T
  0.166667  0.333333 -0.285714    0.00396825  26 t-inv T
 -0.333333  0.166667  0.285714    0.00396825  26 t-inv T
 -0.166667 -0.333333 -0.285714    0.00396825  26 t-inv T
 -0.333333 -0.333333 -0.285714    0.00396825  28 t-inv T
 -0.333333  0.333333  0.285714    0.00396825  28 t-inv T
  0.333333  0.333333 -0.285714    0.00396825  28 t-inv T
  0.333333 -0.333333  0.285714    0.00396825  28 t-inv T
 -0.166667 -0.166667 -0.428571    0.00396825  35 t-inv T
 -0.166667  0.166667  0.428571    0.00396825  35 t-inv T
  0.166667  0.166667 -0.428571    0.00396825  35 t-inv T
  0.166667 -0.166667  0.428571    0.00396825  35 t-inv T
 -0.333333 -0.166667 -0.428571    0.00396825  36 t-inv T
 -0.166667  0.333333  0.428571    0.00396825  36 t-inv T
  0.333333  0.166667 -0.428571    0.00396825  36 t-inv T
  0.166667 -0.333333  0.428571    0.00396825  36 t-inv T
  0.333333 -0.166667  0.428571    0.00396825  36 t-inv T
  0.166667  0.333333 -0.428571    0.00396825  36 t-inv T
 -0.333333  0.166667  0.428571    0.00396825  36 t-inv T
 -0.166667 -0.333333 -0.428571    0.00396825  36 t-inv T
 -0.333333 -0.333333 -0.428571    0.00396825  38 t-inv T
 -0.333333  0.333333  0.428571    0.00396825  38 t-inv T
  0.333333  0.333333 -0.428571    0.00396825  38 t-inv T
  0.333333 -0.333333  0.428571    0.00396825  38 t-inv T


--------------------------------------------------------------------------------------------------------




 Dimension of arrays:
   k-points           NKPTS =     40   k-points in BZ     NKDIM =     40   number of bands    NBANDS=     40
   number of dos      NEDOS =    301   number of ions     NIONS =     16
   non local maximal  LDIM  =      4   non local SUM 2l+1 LMDIM =      8
   total plane-waves  NPLWV =  92160
   max r-space proj   IRMAX =      1   max aug-charges    IRDMAX=   8640
   dimension x,y,z NGX =    48 NGY =   48 NGZ =   40
   dimension x,y,z NGXF=    96 NGYF=   96 NGZF=   80
   support grid    NGXF=    96 NGYF=   96 NGZF=   80
   ions per type =               2   2   4   8
   NGX,Y,Z   is equivalent  to a cutoff of  14.46, 14.46, 14.30 a.u.
   NGXF,Y,Z  is equivalent  to a cutoff of  28.92, 28.92, 28.60 a.u.

 SYSTEM =  unknown system                          
 POSCAR =  Generated by cif2cell 2.0.0. Urea :  Gut

 Startparameter for this run:
   NWRITE =      2    write-flag & timer
   PREC   = accura    normal or accurate (medium, high low for compatibility)
   ISTART =      0    job   : 0-new  1-cont  2-samecut
   ICHARG =      2    charge: 1-file 2-atom 10-const
   ISPIN  =      1    spin polarized calculation?
   LNONCOLLINEAR =      F non collinear calculations
   LSORBIT =      F    spin-orbit coupling
   INIWAV =      1    electr: 0-lowe 1-rand  2-diag
   LASPH  =      F    aspherical Exc in radial PAW
   METAGGA=      F    non-selfconsistent MetaGGA calc.

 Electronic Relaxation 1
   ENCUT  =  600.0 eV  44.10 Ry    6.64 a.u.  11.02 11.02  9.29*2*pi/ulx,y,z
   ENINI  =  600.0     initial cutoff
   ENAUG  =  644.9 eV  augmentation charge cutoff
   NELM   =     60;   NELMIN=  2; NELMDL=  0     # of ELM steps 
   EDIFF  = 0.1E-07   stopping-criterion for ELM
   LREAL  =      F    real-space projection
   NLSPLINE    = F    spline interpolate recip. space projectors
   LCOMPAT=      F    compatible to vasp.4.4
   GGA_COMPAT  = T    GGA compatible to vasp.4.4-vasp.4.6
   LMAXPAW     = -100 max onsite density
   LMAXMIX     =    4 max onsite mixed and CHGCAR
   VOSKOWN=      0    Vosko Wilk Nusair interpolation
   ROPT   =    0.00000   0.00000   0.00000   0.00000
 Ionic relaxation
   EDIFFG = 0.1E-06   stopping-criterion for IOM
   NSW    =      0    number of steps for IOM
   NBLOCK =      1;   KBLOCK =      1    inner block; outer block 
   IBRION =     -1    ionic relax: 0-MD 1-quasi-New 2-CG
   NFREE  =      0    steps in history (QN), initial steepest desc. (CG)
   ISIF   =      2    stress and relaxation
   IWAVPR =     10    prediction:  0-non 1-charg 2-wave 3-comb
   ISYM   =      2    0-nonsym 1-usesym 2-fastsym
   LCORR  =      T    Harris-Foulkes like correction to forces

   POTIM  = 0.4000    time-step for ionic-motion
   TEIN   =    0.0    initial temperature
   TEBEG  =    0.0;   TEEND  =   0.0 temperature during run
   SMASS  =  -3.00    Nose mass-parameter (am)
   estimated Nose-frequenzy (Omega)   =  0.10E-29 period in steps =****** mass=  -0.696E-27a.u.
   SCALEE = 1.0000    scale energy and forces
   NPACO  =    256;   APACO  = 16.0  distance and # of slots for P.C.
   PSTRESS=    0.0 pullay stress

  Mass of Ions in am
   POMASS =  12.01 16.00 14.00  1.00
  Ionic Valenz
   ZVAL   =   4.00  6.00  5.00  1.00
  Atomic Wigner-Seitz radii
   RWIGS  =  -1.00 -1.00 -1.00 -1.00
  virtual crystal weights 
   VCA    =   1.00  1.00  1.00  1.00
   NELECT =      48.0000    total number of electrons
   NUPDOWN=      -1.0000    fix difference up-down

 DOS related values:
   EMIN   =  10.00;   EMAX   =-10.00  energy-range for DOS
   EFERMI =   0.00
   ISMEAR =    -5;   SIGMA  =   0.05  broadening in eV -4-tet -1-fermi 0-gaus

 Electronic relaxation 2 (details)
   IALGO  =     38    algorithm
   LDIAG  =      T    sub-space diagonalisation (order eigenvalues)
   LSUBROT=      F    optimize rotation matrix (better conditioning)
   TURBO    =      0    0=normal 1=particle mesh
   IRESTART =      0    0=no restart 2=restart with 2 vectors
   NREBOOT  =      0    no. of reboots
   NMIN     =      0    reboot dimension
   EREF     =   0.00    reference energy to select bands
   IMIX   =      4    mixing-type and parameters
     AMIX     =   0.40;   BMIX     =  1.00
     AMIX_MAG =   1.60;   BMIX_MAG =  1.00
     AMIN     =   0.10
     WC   =   100.;   INIMIX=   1;  MIXPRE=   1;  MAXMIX= -45

 Intra band minimization:
   WEIMIN = 0.0000     energy-eigenvalue tresh-hold
   EBREAK =  0.63E-10  absolut break condition
   DEPER  =   0.30     relativ break condition  

   TIME   =   0.40     timestep for ELM

  volume/ion in A,a.u.               =       8.85        59.74
  Fermi-wavevector in a.u.,A,eV,Ry     =   1.141347  2.156832 17.723929  1.302672
  Thomas-Fermi vector in A             =   2.278047

 Write flags
   LWAVE        =      T    write WAVECAR
   LDOWNSAMPLE  =      F    k-point downsampling of WAVECAR
   LCHARG       =      T    write CHGCAR
   LVTOT        =      F    write LOCPOT, total local potential
   LVHAR        =      F    write LOCPOT, Hartree potential only
   LELF         =      F    write electronic localiz. function (ELF)
   LORBIT       =      0    0 simple, 1 ext, 2 COOP (PROOUT), +10 PAW based schemes


 Dipole corrections
   LMONO  =      F    monopole corrections only (constant potential shift)
   LDIPOL =      F    correct potential (dipole corrections)
   IDIPOL =      0    1-x, 2-y, 3-z, 4-all directions 
   EPSILON=  1.0000000 bulk dielectric constant

 Exchange correlation treatment:
   GGA     =    --    GGA type
   LEXCH   =     8    internal setting for exchange type
   VOSKOWN=      0    Vosko Wilk Nusair interpolation
   LHFCALC =     F    Hartree Fock is set to
   LHFONE  =     F    Hartree Fock one center treatment
   AEXX    =    0.0000 exact exchange contribution

 Linear response parameters
   LEPSILON=     F    determine dielectric tensor
   LRPA    =     F    only Hartree local field effects (RPA)
   LNABLA  =     F    use nabla operator in PAW spheres
   LVEL    =     F    velocity operator in full k-point grid
   LINTERFAST=   F  fast interpolation
   KINTER  =     0    interpolate to denser k-point grid
   CSHIFT  =0.1000    complex shift for real part using Kramers Kronig
   OMEGAMAX=  -1.0    maximum frequency
   DEG_THRESHOLD= 0.2000000E-02 threshold for treating states as degnerate
   RTIME   =   -0.100 relaxation time in fs
  (WPLASMAI=    0.000 imaginary part of plasma frequency in eV, 0.658/RTIME)
   DFIELD  = 0.0000000 0.0000000 0.0000000 field for delta impulse in time

 Orbital magnetization related:
   ORBITALMAG=     F  switch on orbital magnetization
   LCHIMAG   =     F  perturbation theory with respect to B field
   DQ        =  0.001000  dq finite difference perturbation B field
   LLRAUG    =     F  two centre corrections for induced B field

 PEAD related settings:
   LPEAD      =     T    switch on PEAD
   IPEAD      =     4    finite difference order for dpsi/dk
   LCALCPOL   =     F    calculate macroscopic polarization
   LCALCEPS   =     T    calculate dielectric tensor
   EFIELD_PEAD=    0.0100    0.0100    0.0100
   SKIP_EDOTP =     F
   LRPA       =     F
   SKIP_SCF   =     F


--------------------------------------------------------------------------------------------------------


 Static calculation
 charge density and potential will be updated during run
 non-spin polarized calculation
 Variant of blocked Davidson
 Davidson routine will perform the subspace rotation
 perform sub-space diagonalisation
    after iterative eigenvector-optimisation
 modified Broyden-mixing scheme, WC =      100.0
 initial mixing is a Kerker type mixing with AMIX =  0.4000 and BMIX =      1.0000
 Hartree-type preconditioning will be used
 using additional bands           16
 reciprocal scheme for non local part
 use partial core corrections
 calculate Harris-corrections to forces   (improved forces if not selfconsistent)
 use gradient corrections 
 use of overlap-Matrix (Vanderbilt PP)
 Fermi weights with tetrahedron method with Bloechl corrections


--------------------------------------------------------------------------------------------------------


  energy-cutoff  :      600.00
  volume of cell :      141.65
      direct lattice vectors                 reciprocal lattice vectors
     5.519466260  0.000000000  0.000000000     0.181176939  0.000000000  0.000000000
     0.000000000  5.519466260  0.000000000     0.000000000  0.181176939  0.000000000
     0.000000000  0.000000000  4.649635855     0.000000000  0.000000000  0.215070606

  length of vectors
     5.519466260  5.519466260  4.649635855     0.181176939  0.181176939  0.215070606



 k-points in units of 2pi/SCALE and weight: Generated by cif2cell 2.0.0. k-space res
   0.00000000  0.00000000  0.00000000       0.004
   0.16825298  0.00000000  0.00000000       0.016
   0.33650597  0.00000000  0.00000000       0.016
   0.50475895  0.00000000  0.00000000       0.008
   0.16825298  0.16825298  0.00000000       0.016
   0.33650597  0.16825298  0.00000000       0.032
   0.50475895  0.16825298  0.00000000       0.016
   0.33650597  0.33650597  0.00000000       0.016
   0.50475895  0.33650597  0.00000000       0.016
   0.50475895  0.50475895  0.00000000       0.004
   0.00000000  0.00000000  0.17119620       0.008
   0.16825298  0.00000000  0.17119620       0.032
   0.33650597  0.00000000  0.17119620       0.032
   0.50475895  0.00000000  0.17119620       0.016
   0.16825298  0.16825298  0.17119620       0.032
   0.33650597  0.16825298  0.17119620       0.063
   0.50475895  0.16825298  0.17119620       0.032
   0.33650597  0.33650597  0.17119620       0.032
   0.50475895  0.33650597  0.17119620       0.032
   0.50475895  0.50475895  0.17119620       0.008
   0.00000000  0.00000000  0.34239240       0.008
   0.16825298  0.00000000  0.34239240       0.032
   0.33650597  0.00000000  0.34239240       0.032
   0.50475895  0.00000000  0.34239240       0.016
   0.16825298  0.16825298  0.34239240       0.032
   0.33650597  0.16825298  0.34239240       0.063
   0.50475895  0.16825298  0.34239240       0.032
   0.33650597  0.33650597  0.34239240       0.032
   0.50475895  0.33650597  0.34239240       0.032
   0.50475895  0.50475895  0.34239240       0.008
   0.00000000  0.00000000  0.51358861       0.008
   0.16825298  0.00000000  0.51358861       0.032
   0.33650597  0.00000000  0.51358861       0.032
   0.50475895  0.00000000  0.51358861       0.016
   0.16825298  0.16825298  0.51358861       0.032
   0.33650597  0.16825298  0.51358861       0.063
   0.50475895  0.16825298  0.51358861       0.032
   0.33650597  0.33650597  0.51358861       0.032
   0.50475895  0.33650597  0.51358861       0.032
   0.50475895  0.50475895  0.51358861       0.008

 k-points in reciprocal lattice and weights: Generated by cif2cell 2.0.0. k-space res
   0.00000000  0.00000000  0.00000000       0.004
   0.16666667  0.00000000  0.00000000       0.016
   0.33333333  0.00000000  0.00000000       0.016
   0.50000000  0.00000000  0.00000000       0.008
   0.16666667  0.16666667  0.00000000       0.016
   0.33333333  0.16666667  0.00000000       0.032
   0.50000000  0.16666667  0.00000000       0.016
   0.33333333  0.33333333  0.00000000       0.016
   0.50000000  0.33333333  0.00000000       0.016
   0.50000000  0.50000000  0.00000000       0.004
   0.00000000  0.00000000  0.14285714       0.008
   0.16666667  0.00000000  0.14285714       0.032
   0.33333333  0.00000000  0.14285714       0.032
   0.50000000  0.00000000  0.14285714       0.016
   0.16666667  0.16666667  0.14285714       0.032
   0.33333333  0.16666667  0.14285714       0.063
   0.50000000  0.16666667  0.14285714       0.032
   0.33333333  0.33333333  0.14285714       0.032
   0.50000000  0.33333333  0.14285714       0.032
   0.50000000  0.50000000  0.14285714       0.008
   0.00000000  0.00000000  0.28571429       0.008
   0.16666667  0.00000000  0.28571429       0.032
   0.33333333  0.00000000  0.28571429       0.032
   0.50000000  0.00000000  0.28571429       0.016
   0.16666667  0.16666667  0.28571429       0.032
   0.33333333  0.16666667  0.28571429       0.063
   0.50000000  0.16666667  0.28571429       0.032
   0.33333333  0.33333333  0.28571429       0.032
   0.50000000  0.33333333  0.28571429       0.032
   0.50000000  0.50000000  0.28571429       0.008
   0.00000000  0.00000000  0.42857143       0.008
   0.16666667  0.00000000  0.42857143       0.032
   0.33333333  0.00000000  0.42857143       0.032
   0.50000000  0.00000000  0.42857143       0.016
   0.16666667  0.16666667  0.42857143       0.032
   0.33333333  0.16666667  0.42857143       0.063
   0.50000000  0.16666667  0.42857143       0.032
   0.33333333  0.33333333  0.42857143       0.032
   0.50000000  0.33333333  0.42857143       0.032
   0.50000000  0.50000000  0.42857143       0.008

 position of ions in fractional coordinates (direct lattice) 
   0.00000000  0.50000000  0.32659965
   0.50000000  0.00000000  0.67340035
   0.00000000  0.50000000  0.60180540
   0.50000000  0.00000000  0.39819460
   0.14763624  0.64763624  0.17656203
   0.64763624  0.85236376  0.82343797
   0.85236376  0.35236376  0.17656203
   0.35236376  0.14763624  0.82343797
   0.26242757  0.76242757  0.28193159
   0.76242757  0.73757243  0.71806841
   0.73757243  0.23757243  0.28193159
   0.23757243  0.26242757  0.71806841
   0.14537472  0.64537472  0.95729397
   0.64537472  0.85462528  0.04270603
   0.85462528  0.35462528  0.95729397
   0.35462528  0.14537472  0.04270603

 position of ions in cartesian coordinates  (Angst):
   0.00000000  2.75973313  1.51856945
   2.75973313  0.00000000  3.13106640
   0.00000000  2.75973313  2.79817597
   2.75973313  0.00000000  1.85145989
   0.81487324  3.57460637  0.82094916
   3.57460637  4.70459302  3.82868669
   4.70459302  1.94485989  0.82094916
   1.94485989  0.81487324  3.82868669
   1.44846014  4.20819327  1.31087925
   4.20819327  4.07100612  3.33875660
   4.07100612  1.31127299  1.31087925
   1.31127299  1.44846014  3.33875660
   0.80239085  3.56212398  4.45106834
   3.56212398  4.71707541  0.19856751
   4.71707541  1.95734228  4.45106834
   1.95734228  0.80239085  0.19856751



--------------------------------------------------------------------------------------------------------


 k-point  1 :   0.0000 0.0000 0.0000  plane waves:    4699
 k-point  2 :   0.1667 0.0000 0.0000  plane waves:    4738
 k-point  3 :   0.3333 0.0000 0.0000  plane waves:    4730
 k-point  4 :   0.5000 0.0000 0.0000  plane waves:    4742
 k-point  5 :   0.1667 0.1667 0.0000  plane waves:    4733
 k-point  6 :   0.3333 0.1667 0.0000  plane waves:    4730
 k-point  7 :   0.5000 0.1667 0.0000  plane waves:    4734
 k-point  8 :   0.3333 0.3333 0.0000  plane waves:    4746
 k-point  9 :   0.5000 0.3333 0.0000  plane waves:    4724
 k-point 10 :   0.5000 0.5000 0.0000  plane waves:    4704
 k-point 11 :   0.0000 0.0000 0.1429  plane waves:    4715
 k-point 12 :   0.1667 0.0000 0.1429  plane waves:    4719
 k-point 13 :   0.3333 0.0000 0.1429  plane waves:    4727
 k-point 14 :   0.5000 0.0000 0.1429  plane waves:    4736
 k-point 15 :   0.1667 0.1667 0.1429  plane waves:    4723
 k-point 16 :   0.3333 0.1667 0.1429  plane waves:    4729
 k-point 17 :   0.5000 0.1667 0.1429  plane waves:    4730
 k-point 18 :   0.3333 0.3333 0.1429  plane waves:    4742
 k-point 19 :   0.5000 0.3333 0.1429  plane waves:    4728
 k-point 20 :   0.5000 0.5000 0.1429  plane waves:    4712
 k-point 21 :   0.0000 0.0000 0.2857  plane waves:    4727
 k-point 22 :   0.1667 0.0000 0.2857  plane waves:    4706
 k-point 23 :   0.3333 0.0000 0.2857  plane waves:    4711
 k-point 24 :   0.5000 0.0000 0.2857  plane waves:    4718
 k-point 25 :   0.1667 0.1667 0.2857  plane waves:    4718
 k-point 26 :   0.3333 0.1667 0.2857  plane waves:    4719
 k-point 27 :   0.5000 0.1667 0.2857  plane waves:    4724
 k-point 28 :   0.3333 0.3333 0.2857  plane waves:    4731
 k-point 29 :   0.5000 0.3333 0.2857  plane waves:    4750
 k-point 30 :   0.5000 0.5000 0.2857  plane waves:    4736
 k-point 31 :   0.0000 0.0000 0.4286  plane waves:    4702
 k-point 32 :   0.1667 0.0000 0.4286  plane waves:    4722
 k-point 33 :   0.3333 0.0000 0.4286  plane waves:    4712
 k-point 34 :   0.5000 0.0000 0.4286  plane waves:    4712
 k-point 35 :   0.1667 0.1667 0.4286  plane waves:    4714
 k-point 36 :   0.3333 0.1667 0.4286  plane waves:    4725
 k-point 37 :   0.5000 0.1667 0.4286  plane waves:    4734
 k-point 38 :   0.3333 0.3333 0.4286  plane waves:    4727
 k-point 39 :   0.5000 0.3333 0.4286  plane waves:    4746
 k-point 40 :   0.5000 0.5000 0.4286  plane waves:    4764

 maximum and minimum number of plane-waves per node :      4764     4699

 maximum number of plane-waves:      4764
 maximum index in each direction: 
   IXMAX=   11   IYMAX=   11   IZMAX=    9
   IXMIN=  -11   IYMIN=  -11   IZMIN=   -9


 serial   3D FFT for wavefunctions
 parallel 3D FFT for charge:
    minimum data exchange during FFTs selected (reduces bandwidth)


 total amount of memory used by VASP MPI-rank0   109725. kBytes
=======================================================================

   base      :      30000. kBytes
   nonl-proj :      50044. kBytes
   fftplans  :       3555. kBytes
   grid      :      10487. kBytes
   one-center:         49. kBytes
   wavefun   :      15590. kBytes

     INWAV:  cpu time    0.0000: real time    0.0000
 Broyden mixing: mesh for mixing (old mesh)
   NGX = 23   NGY = 23   NGZ = 19
  (NGX  = 96   NGY  = 96   NGZ  = 80)
  gives a total of  10051 points

 initial charge density was supplied:
 charge density of overlapping atoms calculated
 number of electron      48.0000000 magnetization 
 keeping initial charge density in first step


--------------------------------------------------------------------------------------------------------


 Maximum index for augmentation-charges         1073 (set IRDMAX)


--------------------------------------------------------------------------------------------------------


 First call to EWALD:  gamma=   0.340
 Maximum number of real-space cells 3x 3x 3
 Maximum number of reciprocal cells 3x 3x 3

    FEWALD:  cpu time    0.0005: real time    0.0006


--------------------------------------- Iteration      1(   1)  ---------------------------------------


    POTLOK:  cpu time    0.0642: real time    0.0648
    SETDIJ:  cpu time    0.0020: real time    0.0020
     EDDAV:  cpu time    4.8125: real time    4.8584
 BZINTS: Fermi energy: 10.485740; 48.000000 electrons
         Band energy:-191.618907;  BLOECHL correction: -0.043618
       DOS:  cpu time    0.0156: real time    0.0157
    --------------------------------------------
      LOOP:  cpu time    4.8943: real time    4.9408

 eigenvalue-minimisations  :  3200
 total energy-change (2. order) : 0.2621975E+03  (-0.2539306E+04)
 number of electron      48.0000000 magnetization 
 augmentation part       48.0000000 magnetization 

 Free energy of the ion-electron system (eV)
  ---------------------------------------------------
  alpha Z        PSCENC =        65.42746567
  Ewald energy   TEWEN  =     -1137.94178206
  -Hartree energ DENC   =      -963.10065865
  -exchange      EXHF   =         0.00000000
  -V(xc)+E(xc)   XCENC  =       181.92081024
  PAW double counting   =      1746.94619248    -1756.51730407
  entropy T*S    EENTRO =         0.00000000
  eigenvalues    EBANDS =      -191.61890712
  atomic energy  EATOM  =      2317.08167386
  Solvation  Ediel_sol  =         0.00000000
  ---------------------------------------------------
  free energy    TOTEN  =       262.19749035 eV

  energy without entropy =      262.19749035  energy(sigma->0) =      262.19749035


--------------------------------------------------------------------------------------------------------




--------------------------------------- Iteration      1(   2)  ---------------------------------------


     EDDAV:  cpu time    5.8810: real time    5.9348
 BZINTS: Fermi energy: -2.787936; 48.000000 electrons
         Band energy:-536.621549;  BLOECHL correction:  0.000000
       DOS:  cpu time    0.0027: real time    0.0027
    --------------------------------------------
      LOOP:  cpu time    5.8837: real time    5.9375

 eigenvalue-minimisations  :  4224
 total energy-change (2. order) :-0.3450026E+03  (-0.3294829E+03)
 number of electron      48.0000000 magnetization 
 augmentation part       48.0000000 magnetization 

 Free energy of the ion-electron system (eV)
  ---------------------------------------------------
  alpha Z        PSCENC =        65.42746567
  Ewald energy   TEWEN  =     -1137.94178206
  -Hartree energ DENC   =      -963.10065865
  -exchange      EXHF   =         0.00000000
  -V(xc)+E(xc)   XCENC  =       181.92081024
  PAW double counting   =      1746.94619248    -1756.51730407
  entropy T*S    EENTRO =         0.00000000
  eigenvalues    EBANDS =      -536.62154945
  atomic energy  EATOM  =      2317.08167386
  Solvation  Ediel_sol  =         0.00000000
  ---------------------------------------------------
  free energy    TOTEN  =       -82.80515198 eV

  energy without entropy =      -82.80515198  energy(sigma->0) =      -82.80515198


--------------------------------------------------------------------------------------------------------




--------------------------------------- Iteration      1(   3)  ---------------------------------------


     EDDAV:  cpu time    5.7123: real time    5.7634
 BZINTS: Fermi energy: -3.976564; 48.000000 electrons
         Band energy:-559.360110;  BLOECHL correction:  0.000000
       DOS:  cpu time    0.0029: real time    0.0030
    --------------------------------------------
      LOOP:  cpu time    5.7153: real time    5.7664

 eigenvalue-minimisations  :  4056
 total energy-change (2. order) :-0.2273856E+02  (-0.2258696E+02)
 number of electron      48.0000000 magnetization 
 augmentation part       48.0000000 magnetization 

 Free energy of the ion-electron system (eV)
  ---------------------------------------------------
  alpha Z        PSCENC =        65.42746567
  Ewald energy   TEWEN  =     -1137.94178206
  -Hartree energ DENC   =      -963.10065865
  -exchange      EXHF   =         0.00000000
  -V(xc)+E(xc)   XCENC  =       181.92081024
  PAW double counting   =      1746.94619248    -1756.51730407
  entropy T*S    EENTRO =         0.00000000
  eigenvalues    EBANDS =      -559.36011013
  atomic energy  EATOM  =      2317.08167386
  Solvation  Ediel_sol  =         0.00000000
  ---------------------------------------------------
  free energy    TOTEN  =      -105.54371265 eV

  energy without entropy =     -105.54371265  energy(sigma->0) =     -105.54371265


--------------------------------------------------------------------------------------------------------




--------------------------------------- Iteration      1(   4)  ---------------------------------------


     EDDAV:  cpu time    5.7519: real time    5.8040
 BZINTS: Fermi energy: -3.928478; 48.000000 electrons
         Band energy:-559.636881;  BLOECHL correction:  0.000000
       DOS:  cpu time    0.0029: real time    0.0029
    --------------------------------------------
      LOOP:  cpu time    5.7548: real time    5.8070

 eigenvalue-minimisations  :  4096
 total energy-change (2. order) :-0.2767708E+00  (-0.2764698E+00)
 number of electron      48.0000000 magnetization 
 augmentation part       48.0000000 magnetization 

 Free energy of the ion-electron system (eV)
  ---------------------------------------------------
  alpha Z        PSCENC =        65.42746567
  Ewald energy   TEWEN  =     -1137.94178206
  -Hartree energ DENC   =      -963.10065865
  -exchange      EXHF   =         0.00000000
  -V(xc)+E(xc)   XCENC  =       181.92081024
  PAW double counting   =      1746.94619248    -1756.51730407
  entropy T*S    EENTRO =         0.00000000
  eigenvalues    EBANDS =      -559.63688089
  atomic energy  EATOM  =      2317.08167386
  Solvation  Ediel_sol  =         0.00000000
  ---------------------------------------------------
  free energy    TOTEN  =      -105.82048342 eV

  energy without entropy =     -105.82048342  energy(sigma->0) =     -105.82048342


--------------------------------------------------------------------------------------------------------




--------------------------------------- Iteration      1(   5)  ---------------------------------------


     EDDAV:  cpu time    5.7471: real time    5.7980
 BZINTS: Fermi energy: -3.970838; 48.000000 electrons
         Band energy:-559.641693;  BLOECHL correction:  0.000000
       DOS:  cpu time    0.0029: real time    0.0029
    CHARGE:  cpu time    0.1471: real time    0.1481
    MIXING:  cpu time    0.0019: real time    0.0019
    --------------------------------------------
      LOOP:  cpu time    5.8990: real time    5.9510

 eigenvalue-minimisations  :  4112
 total energy-change (2. order) :-0.4811635E-02  (-0.4811174E-02)
 number of electron      48.0000004 magnetization 
 augmentation part        3.1383267 magnetization 

 Broyden mixing:
  rms(total) = 0.18540E+01    rms(broyden)= 0.18537E+01
  rms(prec ) = 0.32422E+01
  weight for this iteration     100.00

 Free energy of the ion-electron system (eV)
  ---------------------------------------------------
  alpha Z        PSCENC =        65.42746567
  Ewald energy   TEWEN  =     -1137.94178206
  -Hartree energ DENC   =      -963.10065865
  -exchange      EXHF   =         0.00000000
  -V(xc)+E(xc)   XCENC  =       181.92081024
  PAW double counting   =      1746.94619248    -1756.51730407
  entropy T*S    EENTRO =         0.00000000
  eigenvalues    EBANDS =      -559.64169253
  atomic energy  EATOM  =      2317.08167386
  Solvation  Ediel_sol  =         0.00000000
  ---------------------------------------------------
  free energy    TOTEN  =      -105.82529505 eV

  energy without entropy =     -105.82529505  energy(sigma->0) =     -105.82529505


--------------------------------------------------------------------------------------------------------




--------------------------------------- Iteration      1(   6)  ---------------------------------------


    POTLOK:  cpu time    0.0568: real time    0.0572
    SETDIJ:  cpu time    0.0019: real time    0.0020
     EDDAV:  cpu time    5.6393: real time    5.6859
 BZINTS: Fermi energy: -1.687882; 48.000000 electrons
         Band energy:-468.120404;  BLOECHL correction:  0.000000
       DOS:  cpu time    0.0031: real time    0.0031
    CHARGE:  cpu time    0.1484: real time    0.1497
    MIXING:  cpu time    0.0020: real time    0.0028
    --------------------------------------------
      LOOP:  cpu time    5.8515: real time    5.9007

 eigenvalue-minimisations  :  4032
 total energy-change (2. order) : 0.7991741E+01  (-0.1820168E+01)
 number of electron      48.0000004 magnetization 
 augmentation part        2.7151869 magnetization 

 Broyden mixing:
  rms(total) = 0.80778E+00    rms(broyden)= 0.80774E+00
  rms(prec ) = 0.11288E+01
  weight for this iteration     100.00

 eigenvalues of (default mixing * dielectric matrix)
  average eigenvalue GAMMA=   1.1332
  1.1332

 Free energy of the ion-electron system (eV)
  ---------------------------------------------------
  alpha Z        PSCENC =        65.42746567
  Ewald energy   TEWEN  =     -1137.94178206
  -Hartree energ DENC   =     -1050.79511433
  -exchange      EXHF   =         0.00000000
  -V(xc)+E(xc)   XCENC  =       187.53762726
  PAW double counting   =      2608.35837833    -2619.38139874
  entropy T*S    EENTRO =         0.00000000
  eigenvalues    EBANDS =      -468.12040419
  atomic energy  EATOM  =      2317.08167386
  Solvation  Ediel_sol  =         0.00000000
  ---------------------------------------------------
  free energy    TOTEN  =       -97.83355419 eV

  energy without entropy =      -97.83355419  energy(sigma->0) =      -97.83355419


--------------------------------------------------------------------------------------------------------




--------------------------------------- Iteration      1(   7)  ---------------------------------------


    POTLOK:  cpu time    0.0567: real time    0.0571
    SETDIJ:  cpu time    0.0020: real time    0.0020
     EDDAV:  cpu time    5.5725: real time    5.6186
 BZINTS: Fermi energy: -1.118953; 48.000000 electrons
         Band energy:-443.294656;  BLOECHL correction:  0.000000
       DOS:  cpu time    0.0030: real time    0.0030
    CHARGE:  cpu time    0.1457: real time    0.1469
    MIXING:  cpu time    0.0018: real time    0.0018
    --------------------------------------------
      LOOP:  cpu time    5.7818: real time    5.8295

 eigenvalue-minimisations  :  3984
 total energy-change (2. order) : 0.4129764E+00  (-0.1490092E+00)
 number of electron      48.0000004 magnetization 
 augmentation part        2.6780162 magnetization 

 Broyden mixing:
  rms(total) = 0.50399E+00    rms(broyden)= 0.50398E+00
  rms(prec ) = 0.64733E+00
  weight for this iteration     100.00

 eigenvalues of (default mixing * dielectric matrix)
  average eigenvalue GAMMA=   1.7337
  1.1424  2.3249

 Free energy of the ion-electron system (eV)
  ---------------------------------------------------
  alpha Z        PSCENC =        65.42746567
  Ewald energy   TEWEN  =     -1137.94178206
  -Hartree energ DENC   =     -1076.49601862
  -exchange      EXHF   =         0.00000000
  -V(xc)+E(xc)   XCENC  =       189.16359094
  PAW double counting   =      3324.41520988    -3335.77606167
  entropy T*S    EENTRO =         0.00000000
  eigenvalues    EBANDS =      -443.29465577
  atomic energy  EATOM  =      2317.08167386
  Solvation  Ediel_sol  =         0.00000000
  ---------------------------------------------------
  free energy    TOTEN  =       -97.42057778 eV

  energy without entropy =      -97.42057778  energy(sigma->0) =      -97.42057778


--------------------------------------------------------------------------------------------------------




--------------------------------------- Iteration      1(   8)  ---------------------------------------


    POTLOK:  cpu time    0.0564: real time    0.0568
    SETDIJ:  cpu time    0.0019: real time    0.0020
     EDDAV:  cpu time    5.6912: real time    5.7425
 BZINTS: Fermi energy: -1.026216; 48.000000 electrons
         Band energy:-429.037907;  BLOECHL correction:  0.000000
       DOS:  cpu time    0.0026: real time    0.0026
    CHARGE:  cpu time    0.1479: real time    0.1491
    MIXING:  cpu time    0.0019: real time    0.0019
    --------------------------------------------
      LOOP:  cpu time    5.9019: real time    5.9548

 eigenvalue-minimisations  :  4048
 total energy-change (2. order) : 0.9343668E-01  (-0.3441981E-01)
 number of electron      48.0000004 magnetization 
 augmentation part        2.6779573 magnetization 

 Broyden mixing:
  rms(total) = 0.10157E+00    rms(broyden)= 0.10156E+00
  rms(prec ) = 0.15085E+00
  weight for this iteration     100.00

 eigenvalues of (default mixing * dielectric matrix)
  average eigenvalue GAMMA=   1.5191
  2.4672  1.0450  1.0450

 Free energy of the ion-electron system (eV)
  ---------------------------------------------------
  alpha Z        PSCENC =        65.42746567
  Ewald energy   TEWEN  =     -1137.94178206
  -Hartree energ DENC   =     -1091.49765346
  -exchange      EXHF   =         0.00000000
  -V(xc)+E(xc)   XCENC  =       190.28250865
  PAW double counting   =      4151.14689597    -4162.78834301
  entropy T*S    EENTRO =         0.00000000
  eigenvalues    EBANDS =      -429.03790672
  atomic energy  EATOM  =      2317.08167386
  Solvation  Ediel_sol  =         0.00000000
  ---------------------------------------------------
  free energy    TOTEN  =       -97.32714109 eV

  energy without entropy =      -97.32714109  energy(sigma->0) =      -97.32714109


--------------------------------------------------------------------------------------------------------




--------------------------------------- Iteration      1(   9)  ---------------------------------------


    POTLOK:  cpu time    0.0569: real time    0.0572
    SETDIJ:  cpu time    0.0020: real time    0.0020
     EDDAV:  cpu time    5.6854: real time    5.7363
 BZINTS: Fermi energy: -0.918655; 48.000000 electrons
         Band energy:-426.862988;  BLOECHL correction:  0.000000
       DOS:  cpu time    0.0030: real time    0.0030
    CHARGE:  cpu time    0.1462: real time    0.1474
    MIXING:  cpu time    0.0019: real time    0.0019
    --------------------------------------------
      LOOP:  cpu time    5.8954: real time    5.9478

 eigenvalue-minimisations  :  4064
 total energy-change (2. order) : 0.3267438E-02  (-0.2750232E-02)
 number of electron      48.0000004 magnetization 
 augmentation part        2.6677195 magnetization 

 Broyden mixing:
  rms(total) = 0.33866E-01    rms(broyden)= 0.33864E-01
  rms(prec ) = 0.47167E-01
  weight for this iteration     100.00

 eigenvalues of (default mixing * dielectric matrix)
  average eigenvalue GAMMA=   1.5205
  2.4750  1.0671  1.0671  1.4730

 Free energy of the ion-electron system (eV)
  ---------------------------------------------------
  alpha Z        PSCENC =        65.42746567
  Ewald energy   TEWEN  =     -1137.94178206
  -Hartree energ DENC   =     -1093.85670115
  -exchange      EXHF   =         0.00000000
  -V(xc)+E(xc)   XCENC  =       190.50254796
  PAW double counting   =      4282.96479254    -4294.63888213
  entropy T*S    EENTRO =         0.00000000
  eigenvalues    EBANDS =      -426.86298834
  atomic energy  EATOM  =      2317.08167386
  Solvation  Ediel_sol  =         0.00000000
  ---------------------------------------------------
  free energy    TOTEN  =       -97.32387365 eV

  energy without entropy =      -97.32387365  energy(sigma->0) =      -97.32387365


--------------------------------------------------------------------------------------------------------




--------------------------------------- Iteration      1(  10)  ---------------------------------------


    POTLOK:  cpu time    0.0581: real time    0.0587
    SETDIJ:  cpu time    0.0020: real time    0.0020
     EDDAV:  cpu time    5.3426: real time    5.3880
 BZINTS: Fermi energy: -0.917192; 48.000000 electrons
         Band energy:-426.660906;  BLOECHL correction:  0.000000
       DOS:  cpu time    0.0032: real time    0.0032
    CHARGE:  cpu time    0.1616: real time    0.1636
    MIXING:  cpu time    0.0023: real time    0.0024
    --------------------------------------------
      LOOP:  cpu time    5.5697: real time    5.6178

 eigenvalue-minimisations  :  3712
 total energy-change (2. order) :-0.2465803E-02  (-0.6027277E-03)
 number of electron      48.0000004 magnetization 
 augmentation part        2.6691787 magnetization 

 Broyden mixing:
  rms(total) = 0.10997E-01    rms(broyden)= 0.10997E-01
  rms(prec ) = 0.16889E-01
  weight for this iteration     100.00

 eigenvalues of (default mixing * dielectric matrix)
  average eigenvalue GAMMA=   1.4582
  2.3887  1.6088  0.9787  1.1575  1.1575

 Free energy of the ion-electron system (eV)
  ---------------------------------------------------
  alpha Z        PSCENC =        65.42746567
  Ewald energy   TEWEN  =     -1137.94178206
  -Hartree energ DENC   =     -1094.11450963
  -exchange      EXHF   =         0.00000000
  -V(xc)+E(xc)   XCENC  =       190.53936942
  PAW double counting   =      4325.44020712    -4337.09785814
  entropy T*S    EENTRO =         0.00000000
  eigenvalues    EBANDS =      -426.66090570
  atomic energy  EATOM  =      2317.08167386
  Solvation  Ediel_sol  =         0.00000000
  ---------------------------------------------------
  free energy    TOTEN  =       -97.32633946 eV

  energy without entropy =      -97.32633946  energy(sigma->0) =      -97.32633946


--------------------------------------------------------------------------------------------------------




--------------------------------------- Iteration      1(  11)  ---------------------------------------


    POTLOK:  cpu time    0.0593: real time    0.0597
    SETDIJ:  cpu time    0.0020: real time    0.0021
     EDDAV:  cpu time    5.1860: real time    5.2345
 BZINTS: Fermi energy: -0.912965; 48.000000 electrons
         Band energy:-426.556485;  BLOECHL correction:  0.000000
       DOS:  cpu time    0.0030: real time    0.0030
    CHARGE:  cpu time    0.1428: real time    0.1439
    MIXING:  cpu time    0.0022: real time    0.0022
    --------------------------------------------
      LOOP:  cpu time    5.3953: real time    5.4455

 eigenvalue-minimisations  :  3632
 total energy-change (2. order) :-0.5384253E-03  (-0.4246397E-04)
 number of electron      48.0000004 magnetization 
 augmentation part        2.6700403 magnetization 

 Broyden mixing:
  rms(total) = 0.48531E-02    rms(broyden)= 0.48530E-02
  rms(prec ) = 0.83210E-02
  weight for this iteration     100.00

 eigenvalues of (default mixing * dielectric matrix)
  average eigenvalue GAMMA=   1.5869
  2.5950  2.3695  1.3032  1.0332  1.1102  1.1102

 Free energy of the ion-electron system (eV)
  ---------------------------------------------------
  alpha Z        PSCENC =        65.42746567
  Ewald energy   TEWEN  =     -1137.94178206
  -Hartree energ DENC   =     -1094.22859855
  -exchange      EXHF   =         0.00000000
  -V(xc)+E(xc)   XCENC  =       190.54101022
  PAW double counting   =      4316.21657307    -4327.86673480
  entropy T*S    EENTRO =         0.00000000
  eigenvalues    EBANDS =      -426.55648529
  atomic energy  EATOM  =      2317.08167386
  Solvation  Ediel_sol  =         0.00000000
  ---------------------------------------------------
  free energy    TOTEN  =       -97.32687788 eV

  energy without entropy =      -97.32687788  energy(sigma->0) =      -97.32687788


--------------------------------------------------------------------------------------------------------




--------------------------------------- Iteration      1(  12)  ---------------------------------------


    POTLOK:  cpu time    0.0572: real time    0.0576
    SETDIJ:  cpu time    0.0020: real time    0.0020
     EDDAV:  cpu time    5.2037: real time    5.2652
 BZINTS: Fermi energy: -0.911438; 48.000000 electrons
         Band energy:-426.353996;  BLOECHL correction:  0.000000
       DOS:  cpu time    0.0030: real time    0.0030
    CHARGE:  cpu time    0.1508: real time    0.1529
    MIXING:  cpu time    0.0022: real time    0.0022
    --------------------------------------------
      LOOP:  cpu time    5.4189: real time    5.4830

 eigenvalue-minimisations  :  3576
 total energy-change (2. order) :-0.1969818E-03  (-0.2123692E-04)
 number of electron      48.0000004 magnetization 
 augmentation part        2.6695454 magnetization 

 Broyden mixing:
  rms(total) = 0.15022E-02    rms(broyden)= 0.15022E-02
  rms(prec ) = 0.19976E-02
  weight for this iteration     100.00

 eigenvalues of (default mixing * dielectric matrix)
  average eigenvalue GAMMA=   1.6036
  2.7600  2.6352  1.4865  1.0913  1.0913  1.0805  1.0805

 Free energy of the ion-electron system (eV)
  ---------------------------------------------------
  alpha Z        PSCENC =        65.42746567
  Ewald energy   TEWEN  =     -1137.94178206
  -Hartree energ DENC   =     -1094.44970991
  -exchange      EXHF   =         0.00000000
  -V(xc)+E(xc)   XCENC  =       190.55675921
  PAW double counting   =      4313.68882692    -4325.33631255
  entropy T*S    EENTRO =         0.00000000
  eigenvalues    EBANDS =      -426.35399601
  atomic energy  EATOM  =      2317.08167386
  Solvation  Ediel_sol  =         0.00000000
  ---------------------------------------------------
  free energy    TOTEN  =       -97.32707486 eV

  energy without entropy =      -97.32707486  energy(sigma->0) =      -97.32707486


--------------------------------------------------------------------------------------------------------




--------------------------------------- Iteration      1(  13)  ---------------------------------------


    POTLOK:  cpu time    0.0571: real time    0.0585
    SETDIJ:  cpu time    0.0020: real time    0.0020
     EDDAV:  cpu time    5.7065: real time    5.7915
 BZINTS: Fermi energy: -0.912507; 48.000000 electrons
         Band energy:-426.339821;  BLOECHL correction:  0.000000
       DOS:  cpu time    0.0030: real time    0.0031
    CHARGE:  cpu time    0.1880: real time    0.1896
    MIXING:  cpu time    0.0032: real time    0.0032
    --------------------------------------------
      LOOP:  cpu time    5.9597: real time    6.0478

 eigenvalue-minimisations  :  3864
 total energy-change (2. order) :-0.1459678E-04  (-0.1652070E-05)
[...]


 Total change in dipole moment: dp[elc]=(    -0.00000    -0.00000     0.01329 ) electrons Angst

                            diag[e(oo)]=(       ----        ----      2.69776 )

    CHARGE:  cpu time    0.1744: real time    0.1757
    FORLOC:  cpu time    0.0078: real time    0.0078
    FORNL :  cpu time    0.9921: real time    0.9941
    STRESS:  cpu time    2.9907: real time    3.0035
    FORCOR:  cpu time    0.0559: real time    0.0561
    FORHAR:  cpu time    0.0208: real time    0.0209
    MIXING:  cpu time    0.0028: real time    0.0028
    OFIELD:  cpu time    0.0001: real time    0.0001

 ---------------------------------------------------------------------------------------------

         DFTD3 V3.0 Rev 1        
 Edisp (eV)   -0.98591

 E6    (eV) :    -0.7619
 E8    (eV) :    -0.2240
 % E8        : 22.72
    FORVDW:  cpu time    0.0873: real time    0.0875
    DPSIDK:  cpu time   27.7736: real time   27.9461
  LATTYP: Found a simple tetragonal cell.
 ALAT       =     5.5194662600
 C/A-ratio  =     0.8424067900
  
  Lattice vectors:
  
 A1 = (   5.5194662600,   0.0000000000,   0.0000000000)
 A2 = (   0.0000000000,   5.5194662600,   0.0000000000)
 A3 = (   0.0000000000,   0.0000000000,   4.6496358547)


Analysis of symmetry for initial positions (statically):
=====================================================================
 Subroutine PRICEL returns:
 Original cell was already a primitive cell.
 

 Routine SETGRP: Setting up the symmetry group for a 
 simple tetragonal supercell.


 Subroutine GETGRP returns: Found  8 space group operations
 (whereof  4 operations were pure point group operations)
 out of a pool of 16 trial point group operations.


The static configuration has the point symmetry S_4 .
 The point group associated with its full space group is D_2d.


Analysis of symmetry for dynamics (positions and initial velocities):
=====================================================================
 Subroutine PRICEL returns:
 Original cell was already a primitive cell.
 

 Routine SETGRP: Setting up the symmetry group for a 
 simple tetragonal supercell.


 Subroutine GETGRP returns: Found  8 space group operations
 (whereof  4 operations were pure point group operations)
 out of a pool of 16 trial point group operations.


The dynamic configuration has the point symmetry S_4 .
 The point group associated with its full space group is D_2d.


 Subroutine INISYM returns: Found  8 space group operations
 (whereof  4 operations are pure point group operations),
 and found     1 'primitive' translations


 KPOINTS: Generated by cif2cell 2.0.0. k-space res

Automatic generation of k-mesh.
Space group operators:
 irot       det(A)        alpha          n_x          n_y          n_z        tau_x        tau_y        tau_z
    1     1.000000     0.000000     1.000000     0.000000     0.000000     0.000000     0.000000     0.000000
    2    -1.000000    90.000000     0.000000     0.000000    -1.000000     0.000000     0.000000     0.000000
    3     1.000000   180.000000     0.000000     0.000000     1.000000     0.000000     0.000000     0.000000
    4    -1.000000    90.000000     0.000000     0.000000     1.000000     0.000000     0.000000     0.000000
    5     1.000000   180.000000     0.000000     1.000000     0.000000     0.500000     0.500000     0.000000
    6    -1.000000   180.000000     0.707107     0.707107     0.000000     0.500000     0.500000     0.000000
    7     1.000000   180.000000     1.000000     0.000000     0.000000     0.500000     0.500000     0.000000
    8    -1.000000   180.000000     0.707107    -0.707107     0.000000     0.500000     0.500000     0.000000
 
 Subroutine IBZKPT returns following result:
 ===========================================
 
 Found     40 irreducible k-points:
 
 Following reciprocal coordinates:
            Coordinates               Weight
  0.000000  0.000000  0.000000      1.000000
  0.166667  0.000000  0.000000      4.000000
  0.333333  0.000000  0.000000      4.000000
  0.500000  0.000000  0.000000      2.000000
  0.166667  0.166667  0.000000      4.000000
  0.333333  0.166667  0.000000      8.000000
  0.500000  0.166667  0.000000      4.000000
  0.333333  0.333333  0.000000      4.000000
  0.500000  0.333333  0.000000      4.000000
  0.500000  0.500000  0.000000      1.000000
  0.000000  0.000000  0.142857      2.000000
  0.166667  0.000000  0.142857      8.000000
  0.333333  0.000000  0.142857      8.000000
  0.500000  0.000000  0.142857      4.000000
  0.166667  0.166667  0.142857      8.000000
  0.333333  0.166667  0.142857     16.000000
  0.500000  0.166667  0.142857      8.000000
  0.333333  0.333333  0.142857      8.000000
  0.500000  0.333333  0.142857      8.000000
  0.500000  0.500000  0.142857      2.000000
  0.000000  0.000000  0.285714      2.000000
  0.166667  0.000000  0.285714      8.000000
  0.333333  0.000000  0.285714      8.000000
  0.500000  0.000000  0.285714      4.000000
  0.166667  0.166667  0.285714      8.000000
  0.333333  0.166667  0.285714     16.000000
  0.500000  0.166667  0.285714      8.000000
  0.333333  0.333333  0.285714      8.000000
  0.500000  0.333333  0.285714      8.000000
  0.500000  0.500000  0.285714      2.000000
  0.000000  0.000000  0.428571      2.000000
  0.166667  0.000000  0.428571      8.000000
  0.333333  0.000000  0.428571      8.000000
  0.500000  0.000000  0.428571      4.000000
  0.166667  0.166667  0.428571      8.000000
  0.333333  0.166667  0.428571     16.000000
  0.500000  0.166667  0.428571      8.000000
  0.333333  0.333333  0.428571      8.000000
  0.500000  0.333333  0.428571      8.000000
  0.500000  0.500000  0.428571      2.000000
 
 Following cartesian coordinates:
            Coordinates               Weight
  0.000000  0.000000  0.000000      1.000000
  0.168253  0.000000  0.000000      4.000000
  0.336506  0.000000  0.000000      4.000000
  0.504759  0.000000  0.000000      2.000000
  0.168253  0.168253  0.000000      4.000000
  0.336506  0.168253  0.000000      8.000000
  0.504759  0.168253  0.000000      4.000000
  0.336506  0.336506  0.000000      4.000000
  0.504759  0.336506  0.000000      4.000000
  0.504759  0.504759  0.000000      1.000000
  0.000000  0.000000  0.171196      2.000000
  0.168253  0.000000  0.171196      8.000000
  0.336506  0.000000  0.171196      8.000000
  0.504759  0.000000  0.171196      4.000000
  0.168253  0.168253  0.171196      8.000000
  0.336506  0.168253  0.171196     16.000000
  0.504759  0.168253  0.171196      8.000000
  0.336506  0.336506  0.171196      8.000000
  0.504759  0.336506  0.171196      8.000000
  0.504759  0.504759  0.171196      2.000000
  0.000000  0.000000  0.342392      2.000000
  0.168253  0.000000  0.342392      8.000000
  0.336506  0.000000  0.342392      8.000000
  0.504759  0.000000  0.342392      4.000000
  0.168253  0.168253  0.342392      8.000000
  0.336506  0.168253  0.342392     16.000000
  0.504759  0.168253  0.342392      8.000000
  0.336506  0.336506  0.342392      8.000000
  0.504759  0.336506  0.342392      8.000000
  0.504759  0.504759  0.342392      2.000000
  0.000000  0.000000  0.513589      2.000000
  0.168253  0.000000  0.513589      8.000000
  0.336506  0.000000  0.513589      8.000000
  0.504759  0.000000  0.513589      4.000000
  0.168253  0.168253  0.513589      8.000000
  0.336506  0.168253  0.513589     16.000000
  0.504759  0.168253  0.513589      8.000000
  0.336506  0.336506  0.513589      8.000000
  0.504759  0.336506  0.513589      8.000000
  0.504759  0.504759  0.513589      2.000000
 
 TETIRR: Found    381 inequivalent tetrahedra from     1512


 MACROSCOPIC STATIC DIELECTRIC TENSOR (including local field effects)
 ------------------------------------------------------
           2.305854     0.000000     0.000000
          -0.000000     2.305854     0.000000
           0.000000    -0.000000     2.697759
 ------------------------------------------------------


 PIEZOELECTRIC TENSOR (including local field effects) (e Angst)
          XX          YY          ZZ          XY          YZ          ZX
  --------------------------------------------------------------------------------
  x     0.00000     0.00000     0.00000     0.00000     1.29400     0.00000
  y     0.00000    -0.00000     0.00000     0.00000     0.00000     1.29400
  z     0.00000     0.00000     0.00000     1.60057     0.00000     0.00000

 PIEZOELECTRIC TENSOR (including local field effects) (C/m^2)
          XX          YY          ZZ          XY          YZ          ZX
  --------------------------------------------------------------------------------
  x     0.00000     0.00000     0.00000     0.00000     0.14636     0.00000
  y     0.00000    -0.00000     0.00000     0.00000     0.00000     0.14636
  z     0.00000     0.00000     0.00000     0.18104     0.00000     0.00000


 BORN EFFECTIVE CHARGES (including local field effects) (in e, cummulative output)
 ---------------------------------------------------------------------------------
 ion    1
    1     1.36087     1.07515    -0.00000
    2     1.07515     1.36087     0.00000
    3     0.00000     0.00000     2.80985
 ion    2
    1     1.36087    -1.07515     0.00000
    2    -1.07515     1.36087     0.00000
    3     0.00000     0.00000     2.80985
 ion    3
    1    -0.95047     0.14464    -0.00000
    2     0.14464    -0.95047     0.00000
    3     0.00000     0.00000    -2.64094
 ion    4
    1    -0.95047    -0.14464     0.00000
    2    -0.14464    -0.95047     0.00000
    3     0.00000     0.00000    -2.64094
 ion    5
    1    -1.11061    -0.46914     0.24645
    2    -0.46914    -1.11061     0.24645
    3     0.25650     0.25650    -1.04771
 ion    6
    1    -1.11061     0.46914    -0.24645
    2     0.46914    -1.11061     0.24645
    3    -0.25650     0.25650    -1.04771
 ion    7
    1    -1.11061    -0.46914    -0.24645
    2    -0.46914    -1.11061    -0.24645
    3    -0.25650    -0.25650    -1.04771
 ion    8
    1    -1.11061     0.46914     0.24645
    2     0.46914    -1.11061    -0.24645
    3     0.25650    -0.25650    -1.04771
 ion    9
    1     0.58869     0.28989     0.17186
    2     0.28989     0.58869     0.17186
    3     0.19862     0.19862     0.25891
 ion   10
    1     0.58869    -0.28989    -0.17186
    2    -0.28989     0.58869     0.17186
    3    -0.19862     0.19862     0.25891
 ion   11
    1     0.58869     0.28989    -0.17186
    2     0.28989     0.58869    -0.17186
    3    -0.19862    -0.19862     0.25891
 ion   12
    1     0.58869    -0.28989     0.17186
    2    -0.28989     0.58869    -0.17186
    3     0.19862    -0.19862     0.25891
 ion   13
    1     0.31697    -0.07915     0.03856
    2    -0.07915     0.31697     0.03856
    3     0.10729     0.10729     0.70511
 ion   14
    1     0.31697     0.07915    -0.03856
    2     0.07915     0.31697     0.03856
    3    -0.10729     0.10729     0.70511
 ion   15
    1     0.31697    -0.07915    -0.03856
    2    -0.07915     0.31697    -0.03856
    3    -0.10729    -0.10729     0.70511
 ion   16
    1     0.31697     0.07915     0.03856
    2     0.07915     0.31697    -0.03856
    3     0.10729    -0.10729     0.70511

    CHARGE:  cpu time    0.1335: real time    0.1345
    FORLOC:  cpu time    0.0080: real time    0.0080
    FORNL :  cpu time    0.7676: real time    0.7689
    STRESS:  cpu time    2.3116: real time    2.3211
    FORCOR:  cpu time    0.0565: real time    0.0569
    FORHAR:  cpu time    0.0207: real time    0.0208
    MIXING:  cpu time    0.0029: real time    0.0029
    OFIELD:  cpu time    0.0000: real time    0.0000

 ---------------------------------------------------------------------------------------------

         DFTD3 V3.0 Rev 1        
 Edisp (eV)   -0.98591

 E6    (eV) :    -0.7619
 E8    (eV) :    -0.2240
 % E8        : 22.72
    FORVDW:  cpu time    0.0858: real time    0.0860

  FORCE on cell =-STRESS in cart. coord.  units (eV):
  Direction    XX          YY          ZZ          XY          YZ          ZX
  --------------------------------------------------------------------------------------
  Alpha Z    65.42747    65.42747    65.42747
  Ewald    -721.01731  -721.01731   304.08923     0.00000    -0.00000     0.00000
  Hartree   204.72907   204.72907   685.02346    -0.00000    -0.00000    -0.00000
  E(xc)    -203.51545  -203.51545  -200.60791     0.00000     0.00000    -0.00000
  Local    -128.29287  -128.29287 -1525.47798     0.00000    -0.00000     0.00000
  n-local  -136.42821  -136.42038  -137.09144     0.07234    -0.00394     0.00403
  augment    19.23591    19.23591    14.98120    -0.00000     0.00000     0.00000
  Kinetic   901.02938   900.71857   794.73854    -0.29419     0.02616    -0.02365
  Fock        0.00000     0.00000     0.00000     0.00000     0.00000     0.00000
  vdW        -1.05997    -1.05997    -1.06237    -0.00000     0.00000    -0.00000
  -------------------------------------------------------------------------------------
  Total      -0.04348    -0.04348     0.02019     0.00000     0.00000    -0.00000
  in kB      -0.49181    -0.49181     0.22839     0.00000     0.00000    -0.00000
  external pressure =       -0.25 kB  Pullay stress =        0.00 kB


 VOLUME and BASIS-vectors are now :
 -----------------------------------------------------------------------------
  energy-cutoff  :      600.00
  volume of cell :      141.65
      direct lattice vectors                 reciprocal lattice vectors
     5.519466260  0.000000000  0.000000000     0.181176939  0.000000000  0.000000000
     0.000000000  5.519466260  0.000000000     0.000000000  0.181176939  0.000000000
     0.000000000  0.000000000  4.649635855     0.000000000  0.000000000  0.215070606

  length of vectors
     5.519466260  5.519466260  4.649635855     0.181176939  0.181176939  0.215070606


 FORCES acting on ions
    electron-ion (+dipol)            ewald-force                    non-local-force                 convergence-correction
 -----------------------------------------------------------------------------------------------
   -.816E-13 -.114E-12 0.298E+02   -.334E-12 0.421E-12 -.303E+02   0.000E+00 0.203E-18 0.469E+00   0.000E+00 0.000E+00 0.000E+00
   -.919E-13 0.415E-13 -.298E+02   -.129E-12 -.171E-12 0.303E+02   0.000E+00 0.217E-18 -.469E+00   0.000E+00 0.000E+00 0.000E+00
   -.154E-13 0.371E-12 -.156E+03   -.451E-12 0.578E-12 0.201E+03   0.867E-18 0.000E+00 -.445E+02   0.000E+00 0.000E+00 0.000E+00
   0.155E-12 0.412E-13 0.156E+03   -.217E-12 -.224E-12 -.201E+03   -.867E-18 0.217E-18 0.445E+02   0.000E+00 0.000E+00 0.000E+00
   -.792E+02 -.792E+02 0.542E+02   0.828E+02 0.828E+02 -.564E+02   -.368E+01 -.368E+01 0.216E+01   0.000E+00 0.000E+00 0.000E+00
   -.792E+02 0.792E+02 -.542E+02   0.828E+02 -.828E+02 0.564E+02   -.368E+01 0.368E+01 -.216E+01   0.000E+00 0.000E+00 0.000E+00
   0.792E+02 0.792E+02 0.542E+02   -.828E+02 -.828E+02 -.564E+02   0.368E+01 0.368E+01 0.216E+01   0.000E+00 0.000E+00 0.000E+00
   0.792E+02 -.792E+02 -.542E+02   -.828E+02 0.828E+02 0.564E+02   0.368E+01 -.368E+01 -.216E+01   0.000E+00 0.000E+00 0.000E+00
   -.312E+02 -.312E+02 -.221E+02   0.358E+02 0.358E+02 0.256E+02   -.461E+01 -.461E+01 -.349E+01   0.000E+00 0.000E+00 0.000E+00
   -.312E+02 0.312E+02 0.221E+02   0.358E+02 -.358E+02 -.256E+02   -.461E+01 0.461E+01 0.349E+01   0.000E+00 0.000E+00 0.000E+00
   0.312E+02 0.312E+02 -.221E+02   -.358E+02 -.358E+02 0.256E+02   0.461E+01 0.461E+01 -.349E+01   0.000E+00 0.000E+00 0.000E+00
   0.312E+02 -.312E+02 0.221E+02   -.358E+02 0.358E+02 -.256E+02   0.461E+01 -.461E+01 0.349E+01   0.000E+00 0.000E+00 0.000E+00
   -.101E+02 -.101E+02 0.552E+02   0.101E+02 0.101E+02 -.626E+02   0.528E-01 0.528E-01 0.747E+01   0.000E+00 0.000E+00 0.000E+00
   -.101E+02 0.101E+02 -.552E+02   0.101E+02 -.101E+02 0.626E+02   0.528E-01 -.528E-01 -.747E+01   0.000E+00 0.000E+00 0.000E+00
   0.101E+02 0.101E+02 0.552E+02   -.101E+02 -.101E+02 -.626E+02   -.528E-01 -.528E-01 0.747E+01   0.000E+00 0.000E+00 0.000E+00
   0.101E+02 -.101E+02 -.552E+02   -.101E+02 0.101E+02 0.626E+02   -.528E-01 0.528E-01 -.747E+01   0.000E+00 0.000E+00 0.000E+00
 -----------------------------------------------------------------------------------------------
   0.584E-09 0.586E-09 0.973E-12   0.124E-13 0.160E-13 -.711E-14   0.000E+00 -.888E-15 -.711E-14   0.000E+00 0.000E+00 0.000E+00


 POSITION                                       TOTAL-FORCE (eV/Angst)
 -----------------------------------------------------------------------------------
      0.00000      2.75973      1.51857        -0.000000      0.000000     -0.002437
      2.75973      0.00000      3.13107        -0.000000      0.000000      0.002437
      0.00000      2.75973      2.79818        -0.000000      0.000000     -0.007757
      2.75973      0.00000      1.85146        -0.000000      0.000000      0.007757
      0.81487      3.57461      0.82095         0.003602      0.003602      0.001680
      3.57461      4.70459      3.82869         0.003602     -0.003602     -0.001680
      4.70459      1.94486      0.82095        -0.003602     -0.003602      0.001680
      1.94486      0.81487      3.82869        -0.003602      0.003602     -0.001680
      1.44846      4.20819      1.31088         0.003224      0.003224     -0.000719
      4.20819      4.07101      3.33876         0.003224     -0.003224      0.000719
      4.07101      1.31127      1.31088        -0.003224     -0.003224     -0.000719
      1.31127      1.44846      3.33876        -0.003224      0.003224      0.000719
      0.80239      3.56212      4.45107         0.003615      0.003615      0.001305
      3.56212      4.71708      0.19857         0.003615     -0.003615     -0.001305
      4.71708      1.95734      4.45107        -0.003615     -0.003615      0.001305
      1.95734      0.80239      0.19857        -0.003615      0.003615     -0.001305
 -----------------------------------------------------------------------------------
    total drift:                                0.000000      0.000000      0.000000


--------------------------------------------------------------------------------------------------------



  FREE ENERGIE OF THE ION-ELECTRON SYSTEM (eV)
  ---------------------------------------------------
  free  energy   TOTEN  =       -99.29897563 eV

  energy  without entropy=      -99.29897563  energy(sigma->0) =      -99.29897563



--------------------------------------------------------------------------------------------------------


    POTLOK:  cpu time    0.0557: real time    0.0560


--------------------------------------------------------------------------------------------------------


 writing wavefunctions
     LOOP+:  cpu time 7632.2729: real time 7685.0021
    4ORBIT:  cpu time    0.0000: real time    0.0000
 BZINTS: Fermi energy: -0.913858; 48.000000 electrons
         Band energy:-426.324035;  BLOECHL correction:  0.000000

 total amount of memory used by VASP MPI-rank0   109725. kBytes
=======================================================================

   base      :      30000. kBytes
   nonl-proj :      50044. kBytes
   fftplans  :       3555. kBytes
   grid      :      10487. kBytes
   one-center:         49. kBytes
   wavefun   :      15590. kBytes

  
  
 General timing and accounting informations for this job:
 ========================================================
  
                  Total CPU time used (sec):     7634.246
                            User time (sec):     7503.369
                          System time (sec):      130.877
                         Elapsed time (sec):     7688.065
  
                   Maximum memory used (kb):      532048.
                   Average memory used (kb):           0.
  
                          Minor page faults:        78333
                          Major page faults:           13
                 Voluntary context switches:          318
