<?xml version="1.0" encoding="ISO-8859-1"?>
<modeling>
 <generator>
  <i name="program" type="string">vasp </i>
  <i name="version" type="string">5.4.4.18Apr17-6-g9f103f2a35  </i>
  <i name="subversion" type="string">(build Nov 16 2021 14:02:39) complex            parallel </i>
  <i name="platform" type="string">LinuxGNU_vivaldi </i>
  <i name="date" type="string">2024 09 14 </i>
  <i name="time" type="string">12:38:33 </i>
 </generator>
 <incar>
  <i type="string" name="PREC">accurate</i>
  <i name="EDIFF">      0.00000001</i>
  <i name="ENCUT">    600.00000000</i>
  <i name="POTIM">      0.40000000</i>
  <i type="logical" name="LREAL"> F  </i>
  <i type="int" name="ISMEAR">    -5</i>
  <i name="SIGMA">      0.05000000</i>
  <i type="int" name="LMAXMIX">     4</i>
  <i type="logical" name="LSCALU"> T  </i>
  <v type="int" name="KPOINT_BSE">    -1     0     0     0</v>
  <i type="logical" name="LCALCEPS"> T  </i>
 </incar>
 <structure name="primitive_cell" >
  <crystal>
   <varray name="basis" >
    <v>       5.51946626       0.00000000       0.00000000 </v>
    <v>       0.00000000       5.51946626       0.00000000 </v>
    <v>       0.00000000       0.00000000       4.64963585 </v>
   </varray>
   <i name="volume">    141.64886774 </i>
   <varray name="rec_basis" >
    <v>       0.18117694       0.00000000       0.00000000 </v>
    <v>       0.00000000       0.18117694       0.00000000 </v>
    <v>       0.00000000       0.00000000       0.21507061 </v>
   </varray>
  </crystal>
  <varray name="positions" >
   <v>       0.00000000      -0.50000000       0.32659965 </v>
   <v>       0.00000000      -0.50000000      -0.39819460 </v>
   <v>       0.14763624      -0.35236376       0.17656203 </v>
   <v>      -0.14763624       0.35236376       0.17656203 </v>
   <v>      -0.14537472       0.35462528      -0.04270603 </v>
   <v>       0.14537472      -0.35462528      -0.04270603 </v>
   <v>       0.26242757      -0.23757243       0.28193159 </v>
   <v>      -0.26242757       0.23757243       0.28193159 </v>
   <v>      -0.23757243      -0.26242757      -0.28193159 </v>
   <v>       0.23757243       0.26242757      -0.28193159 </v>
   <v>       0.35462528       0.14537472       0.04270603 </v>
   <v>      -0.35462528      -0.14537472       0.04270603 </v>
   <v>      -0.35236376      -0.14763624      -0.17656203 </v>
   <v>       0.35236376       0.14763624      -0.17656203 </v>
   <v>      -0.50000000       0.00000000       0.39819460 </v>
   <v>      -0.50000000       0.00000000      -0.32659965 </v>
  </varray>
 </structure>
 <varray name="primitive_index" >
  <v type="int" >        1 </v>
  <v type="int" >        3 </v>
  <v type="int" >        5 </v>
  <v type="int" >        7 </v>
  <v type="int" >       15 </v>
  <v type="int" >       13 </v>
  <v type="int" >        9 </v>
  <v type="int" >       11 </v>
  <v type="int" >       10 </v>
  <v type="int" >       12 </v>
  <v type="int" >       16 </v>
  <v type="int" >       14 </v>
  <v type="int" >        6 </v>
  <v type="int" >        8 </v>
  <v type="int" >        4 </v>
  <v type="int" >        2 </v>
 </varray>
 <kpoints>
  <generation param="Gamma">
   <v type="int" name="divisions">       6        6        7 </v>
   <v name="usershift">      0.00000000       0.00000000       0.00000000 </v>
   <v name="genvec1">      0.16666667       0.00000000       0.00000000 </v>
   <v name="genvec2">      0.00000000       0.16666667       0.00000000 </v>
   <v name="genvec3">      0.00000000       0.00000000       0.14285714 </v>
   <v name="shift">      0.00000000       0.00000000       0.00000000 </v>
  </generation>
  <varray name="kpointlist" >
   <v>       0.00000000       0.00000000       0.00000000 </v>
   <v>       0.16666667       0.00000000       0.00000000 </v>
   <v>       0.33333333       0.00000000       0.00000000 </v>
   <v>       0.50000000       0.00000000       0.00000000 </v>
   <v>       0.16666667       0.16666667       0.00000000 </v>
   <v>       0.33333333       0.16666667       0.00000000 </v>
   <v>       0.50000000       0.16666667       0.00000000 </v>
   <v>       0.33333333       0.33333333       0.00000000 </v>
   <v>       0.50000000       0.33333333       0.00000000 </v>
   <v>       0.50000000       0.50000000       0.00000000 </v>
   <v>       0.00000000       0.00000000       0.14285714 </v>
   <v>       0.16666667       0.00000000       0.14285714 </v>
   <v>       0.33333333       0.00000000       0.14285714 </v>
   <v>       0.50000000       0.00000000       0.14285714 </v>
   <v>       0.16666667       0.16666667       0.14285714 </v>
   <v>       0.33333333       0.16666667       0.14285714 </v>
   <v>       0.50000000       0.16666667       0.14285714 </v>
   <v>       0.33333333       0.33333333       0.14285714 </v>
   <v>       0.50000000       0.33333333       0.14285714 </v>
   <v>       0.50000000       0.50000000       0.14285714 </v>
   <v>       0.00000000       0.00000000       0.28571429 </v>
   <v>       0.16666667       0.00000000       0.28571429 </v>
   <v>       0.33333333       0.00000000       0.28571429 </v>
   <v>       0.50000000       0.00000000       0.28571429 </v>
   <v>       0.16666667       0.16666667       0.28571429 </v>
   <v>       0.33333333       0.16666667       0.28571429 </v>
   <v>       0.50000000       0.16666667       0.28571429 </v>
   <v>       0.33333333       0.33333333       0.28571429 </v>
   <v>       0.50000000       0.33333333       0.28571429 </v>
   <v>       0.50000000       0.50000000       0.28571429 </v>
   <v>       0.00000000       0.00000000       0.42857143 </v>
   <v>       0.16666667       0.00000000       0.42857143 </v>
   <v>       0.33333333       0.00000000       0.42857143 </v>
   <v>       0.50000000       0.00000000       0.42857143 </v>
   <v>       0.16666667       0.16666667       0.42857143 </v>
   <v>       0.33333333       0.16666667       0.42857143 </v>
   <v>       0.50000000       0.16666667       0.42857143 </v>
   <v>       0.33333333       0.33333333       0.42857143 </v>
   <v>       0.50000000       0.33333333       0.42857143 </v>
   <v>       0.50000000       0.50000000       0.42857143 </v>
  </varray>
  <varray name="weights" >
   <v>       0.00396825 </v>
   <v>       0.01587302 </v>
   <v>       0.01587302 </v>
   <v>       0.00793651 </v>
   <v>       0.01587302 </v>
   <v>       0.03174603 </v>
   <v>       0.01587302 </v>
   <v>       0.01587302 </v>
   <v>       0.01587302 </v>
   <v>       0.00396825 </v>
   <v>       0.00793651 </v>
   <v>       0.03174603 </v>
   <v>       0.03174603 </v>
   <v>       0.01587302 </v>
   <v>       0.03174603 </v>
   <v>       0.06349206 </v>
   <v>       0.03174603 </v>
   <v>       0.03174603 </v>
   <v>       0.03174603 </v>
   <v>       0.00793651 </v>
   <v>       0.00793651 </v>
   <v>       0.03174603 </v>
   <v>       0.03174603 </v>
   <v>       0.01587302 </v>
   <v>       0.03174603 </v>
   <v>       0.06349206 </v>
   <v>       0.03174603 </v>
   <v>       0.03174603 </v>
   <v>       0.03174603 </v>
   <v>       0.00793651 </v>
   <v>       0.00793651 </v>
   <v>       0.03174603 </v>
   <v>       0.03174603 </v>
   <v>       0.01587302 </v>
   <v>       0.03174603 </v>
   <v>       0.06349206 </v>
   <v>       0.03174603 </v>
   <v>       0.03174603 </v>
   <v>       0.03174603 </v>
   <v>       0.00793651 </v>
  </varray>
  <varray name="tetrahedronlist"  type="int" >
   <v type="int" >        4        1        2        5       11 </v>
   <v type="int" >        4        2        5       11       12 </v>
   <v type="int" >        4        5       11       12       15 </v>
   <v type="int" >        4        2        3        6       12 </v>
   <v type="int" >        4        2        5        6       12 </v>
   <v type="int" >        4        5        6       12       15 </v>
   <v type="int" >        4        3        6       12       13 </v>
   <v type="int" >        4        6       12       13       16 </v>
   <v type="int" >        4        6       12       15       16 </v>
   <v type="int" >        4        3        4        7       13 </v>
   <v type="int" >        4        3        6        7       13 </v>
   <v type="int" >        4        6        7       13       16 </v>
   <v type="int" >        4        4        7       13       14 </v>
   <v type="int" >        4        7       13       14       17 </v>
   <v type="int" >        4        7       13       16       17 </v>
   <v type="int" >        4        3        4        6       14 </v>
   <v type="int" >        4        4        6        7       14 </v>
   <v type="int" >        4        6        7       14       17 </v>
   <v type="int" >        4        3        6       13       14 </v>
   <v type="int" >        4        6       13       14       16 </v>
   <v type="int" >        4        6       14       16       17 </v>
   <v type="int" >        4        2        3        5       13 </v>
   <v type="int" >        4        3        5        6       13 </v>
   <v type="int" >        4        5        6       13       16 </v>
   <v type="int" >        4        2        5       12       13 </v>
   <v type="int" >        4        5       12       13       15 </v>
   <v type="int" >        4        5       13       15       16 </v>
   <v type="int" >        4        1        2        2       12 </v>
   <v type="int" >        4        2        2        5       12 </v>
   <v type="int" >        4        2        5       12       15 </v>
   <v type="int" >        4        1        2       11       12 </v>
   <v type="int" >        4        2       11       12       12 </v>
   <v type="int" >        4        2       12       12       15 </v>
   <v type="int" >        4        5        6        8       15 </v>
   <v type="int" >        4        6        8       15       16 </v>
   <v type="int" >        4        8       15       16       18 </v>
   <v type="int" >        4        6        7        9       16 </v>
   <v type="int" >        4        6        8        9       16 </v>
   <v type="int" >        4        8        9       16       18 </v>
   <v type="int" >        4        7        9       16       17 </v>
   <v type="int" >        4        9       16       17       19 </v>
   <v type="int" >        4        9       16       18       19 </v>
   <v type="int" >        4        6        7        8       17 </v>
   <v type="int" >        4        7        8        9       17 </v>
   <v type="int" >        4        8        9       17       19 </v>
   <v type="int" >        4        6        8       16       17 </v>
   <v type="int" >        4        8       16       17       18 </v>
   <v type="int" >        4        8       17       18       19 </v>
   <v type="int" >        4        5        6        6       16 </v>
   <v type="int" >        4        6        6        8       16 </v>
   <v type="int" >        4        6        8       16       18 </v>
   <v type="int" >        4        5        6       15       16 </v>
   <v type="int" >        4        6       15       16       16 </v>
   <v type="int" >        4        6       16       16       18 </v>
   <v type="int" >        4        2        3        5       15 </v>
   <v type="int" >        4        3        5        6       15 </v>
   <v type="int" >        4        3        6       15       16 </v>
   <v type="int" >        4        2        3       12       15 </v>
   <v type="int" >        4        3       12       13       15 </v>
   <v type="int" >        4        3       13       15       16 </v>
   <v type="int" >        4        8        9       10       18 </v>
   <v type="int" >        4        9       10       18       19 </v>
   <v type="int" >        4       10       18       19       20 </v>
   <v type="int" >        4        8        9        9       19 </v>
   <v type="int" >        4        9        9       10       19 </v>
   <v type="int" >        4        9       10       19       20 </v>
   <v type="int" >        4        8        9       18       19 </v>
   <v type="int" >        4        9       18       19       19 </v>
   <v type="int" >        4        9       19       19       20 </v>
   <v type="int" >        4        6        7        8       18 </v>
   <v type="int" >        4        7        8        9       18 </v>
   <v type="int" >        4        7        9       18       19 </v>
   <v type="int" >        4        6        7       16       18 </v>
   <v type="int" >        4        7       16       17       18 </v>
   <v type="int" >        4        7       17       18       19 </v>
   <v type="int" >        4        3        4        6       16 </v>
   <v type="int" >        4        4        6        7       16 </v>
   <v type="int" >        4        4        7       16       17 </v>
   <v type="int" >        4        3        4       13       16 </v>
   <v type="int" >        4        4       13       14       16 </v>
   <v type="int" >        4        4       14       16       17 </v>
   <v type="int" >        4        8        9       10       20 </v>
   <v type="int" >        4        8        9       19       20 </v>
   <v type="int" >        4        8       18       19       20 </v>
   <v type="int" >        4        6        7        9       19 </v>
   <v type="int" >        4        6        8        9       19 </v>
   <v type="int" >        4        6        8       18       19 </v>
   <v type="int" >        4        6        7       17       19 </v>
   <v type="int" >        4        6       16       17       19 </v>
   <v type="int" >        4        6       16       18       19 </v>
   <v type="int" >        4        3        4        7       17 </v>
   <v type="int" >        4        3        6        7       17 </v>
   <v type="int" >        4        3        6       16       17 </v>
   <v type="int" >        4        3        4       14       17 </v>
   <v type="int" >        4        3       13       14       17 </v>
   <v type="int" >        4        3       13       16       17 </v>
   <v type="int" >        4        5        6        8       18 </v>
   <v type="int" >        4        5        6       16       18 </v>
   <v type="int" >        4        5       15       16       18 </v>
   <v type="int" >        4        2        3        6       16 </v>
   <v type="int" >        4        2        5        6       16 </v>
   <v type="int" >        4        2        5       15       16 </v>
   <v type="int" >        4        2        3       13       16 </v>
   <v type="int" >        4        2       12       13       16 </v>
   <v type="int" >        4        2       12       15       16 </v>
   <v type="int" >        4        1        2        5       15 </v>
   <v type="int" >        4        1        2       12       15 </v>
   <v type="int" >        4        1       11       12       15 </v>
   <v type="int" >        4       11       12       15       21 </v>
   <v type="int" >        4       12       15       21       22 </v>
   <v type="int" >        4       15       21       22       25 </v>
   <v type="int" >        4       12       13       16       22 </v>
   <v type="int" >        4       12       15       16       22 </v>
   <v type="int" >        4       15       16       22       25 </v>
   <v type="int" >        4       13       16       22       23 </v>
   <v type="int" >        4       16       22       23       26 </v>
   <v type="int" >        4       16       22       25       26 </v>
   <v type="int" >        4       13       14       17       23 </v>
   <v type="int" >        4       13       16       17       23 </v>
   <v type="int" >        4       16       17       23       26 </v>
   <v type="int" >        4       14       17       23       24 </v>
   <v type="int" >        4       17       23       24       27 </v>
   <v type="int" >        4       17       23       26       27 </v>
   <v type="int" >        4       13       14       16       24 </v>
   <v type="int" >        4       14       16       17       24 </v>
   <v type="int" >        4       16       17       24       27 </v>
   <v type="int" >        4       13       16       23       24 </v>
   <v type="int" >        4       16       23       24       26 </v>
   <v type="int" >        4       16       24       26       27 </v>
   <v type="int" >        4       12       13       15       23 </v>
   <v type="int" >        4       13       15       16       23 </v>
   <v type="int" >        4       15       16       23       26 </v>
   <v type="int" >        4       12       15       22       23 </v>
   <v type="int" >        4       15       22       23       25 </v>
   <v type="int" >        4       15       23       25       26 </v>
   <v type="int" >        4       11       12       12       22 </v>
   <v type="int" >        4       12       12       15       22 </v>
   <v type="int" >        4       12       15       22       25 </v>
   <v type="int" >        4       11       12       21       22 </v>
   <v type="int" >        4       12       21       22       22 </v>
   <v type="int" >        4       12       22       22       25 </v>
   <v type="int" >        4       15       16       18       25 </v>
   <v type="int" >        4       16       18       25       26 </v>
   <v type="int" >        4       18       25       26       28 </v>
   <v type="int" >        4       16       17       19       26 </v>
   <v type="int" >        4       16       18       19       26 </v>
   <v type="int" >        4       18       19       26       28 </v>
   <v type="int" >        4       17       19       26       27 </v>
   <v type="int" >        4       19       26       27       29 </v>
   <v type="int" >        4       19       26       28       29 </v>
   <v type="int" >        4       16       17       18       27 </v>
   <v type="int" >        4       17       18       19       27 </v>
   <v type="int" >        4       18       19       27       29 </v>
   <v type="int" >        4       16       18       26       27 </v>
   <v type="int" >        4       18       26       27       28 </v>
   <v type="int" >        4       18       27       28       29 </v>
   <v type="int" >        4       15       16       16       26 </v>
   <v type="int" >        4       16       16       18       26 </v>
   <v type="int" >        4       16       18       26       28 </v>
   <v type="int" >        4       15       16       25       26 </v>
   <v type="int" >        4       16       25       26       26 </v>
   <v type="int" >        4       16       26       26       28 </v>
   <v type="int" >        4       12       13       15       25 </v>
   <v type="int" >        4       13       15       16       25 </v>
   <v type="int" >        4       13       16       25       26 </v>
   <v type="int" >        4       12       13       22       25 </v>
   <v type="int" >        4       13       22       23       25 </v>
   <v type="int" >        4       13       23       25       26 </v>
   <v type="int" >        4       18       19       20       28 </v>
   <v type="int" >        4       19       20       28       29 </v>
   <v type="int" >        4       20       28       29       30 </v>
   <v type="int" >        4       18       19       19       29 </v>
   <v type="int" >        4       19       19       20       29 </v>
   <v type="int" >        4       19       20       29       30 </v>
   <v type="int" >        4       18       19       28       29 </v>
   <v type="int" >        4       19       28       29       29 </v>
   <v type="int" >        4       19       29       29       30 </v>
   <v type="int" >        4       16       17       18       28 </v>
   <v type="int" >        4       17       18       19       28 </v>
   <v type="int" >        4       17       19       28       29 </v>
   <v type="int" >        4       16       17       26       28 </v>
   <v type="int" >        4       17       26       27       28 </v>
   <v type="int" >        4       17       27       28       29 </v>
   <v type="int" >        4       13       14       16       26 </v>
   <v type="int" >        4       14       16       17       26 </v>
   <v type="int" >        4       14       17       26       27 </v>
   <v type="int" >        4       13       14       23       26 </v>
   <v type="int" >        4       14       23       24       26 </v>
   <v type="int" >        4       14       24       26       27 </v>
   <v type="int" >        4       18       19       20       30 </v>
   <v type="int" >        4       18       19       29       30 </v>
   <v type="int" >        4       18       28       29       30 </v>
   <v type="int" >        4       16       17       19       29 </v>
   <v type="int" >        4       16       18       19       29 </v>
   <v type="int" >        4       16       18       28       29 </v>
   <v type="int" >        4       16       17       27       29 </v>
   <v type="int" >        4       16       26       27       29 </v>
   <v type="int" >        4       16       26       28       29 </v>
   <v type="int" >        4       13       14       17       27 </v>
   <v type="int" >        4       13       16       17       27 </v>
   <v type="int" >        4       13       16       26       27 </v>
   <v type="int" >        4       13       14       24       27 </v>
   <v type="int" >        4       13       23       24       27 </v>
   <v type="int" >        4       13       23       26       27 </v>
   <v type="int" >        4       15       16       18       28 </v>
   <v type="int" >        4       15       16       26       28 </v>
   <v type="int" >        4       15       25       26       28 </v>
   <v type="int" >        4       12       13       16       26 </v>
   <v type="int" >        4       12       15       16       26 </v>
   <v type="int" >        4       12       15       25       26 </v>
   <v type="int" >        4       12       13       23       26 </v>
   <v type="int" >        4       12       22       23       26 </v>
   <v type="int" >        4       12       22       25       26 </v>
   <v type="int" >        4       11       12       15       25 </v>
   <v type="int" >        4       11       12       22       25 </v>
   <v type="int" >        4       11       21       22       25 </v>
   <v type="int" >        4       21       22       25       31 </v>
   <v type="int" >        4       22       25       31       32 </v>
   <v type="int" >        4       25       31       32       35 </v>
   <v type="int" >        4       22       23       26       32 </v>
   <v type="int" >        4       22       25       26       32 </v>
   <v type="int" >        4       25       26       32       35 </v>
   <v type="int" >        4       23       26       32       33 </v>
   <v type="int" >        4       26       32       33       36 </v>
   <v type="int" >        4       26       32       35       36 </v>
   <v type="int" >        4       23       24       27       33 </v>
   <v type="int" >        4       23       26       27       33 </v>
   <v type="int" >        4       26       27       33       36 </v>
   <v type="int" >        4       24       27       33       34 </v>
   <v type="int" >        4       27       33       34       37 </v>
   <v type="int" >        4       27       33       36       37 </v>
   <v type="int" >        4       23       24       26       34 </v>
   <v type="int" >        4       24       26       27       34 </v>
   <v type="int" >        4       26       27       34       37 </v>
   <v type="int" >        4       23       26       33       34 </v>
   <v type="int" >        4       26       33       34       36 </v>
   <v type="int" >        4       26       34       36       37 </v>
   <v type="int" >        4       22       23       25       33 </v>
   <v type="int" >        4       23       25       26       33 </v>
   <v type="int" >        4       25       26       33       36 </v>
   <v type="int" >        4       22       25       32       33 </v>
   <v type="int" >        4       25       32       33       35 </v>
   <v type="int" >        4       25       33       35       36 </v>
   <v type="int" >        4       21       22       22       32 </v>
   <v type="int" >        4       22       22       25       32 </v>
   <v type="int" >        4       22       25       32       35 </v>
   <v type="int" >        4       21       22       31       32 </v>
   <v type="int" >        4       22       31       32       32 </v>
   <v type="int" >        4       22       32       32       35 </v>
   <v type="int" >        4       25       26       28       35 </v>
   <v type="int" >        4       26       28       35       36 </v>
   <v type="int" >        4       28       35       36       38 </v>
   <v type="int" >        4       26       27       29       36 </v>
   <v type="int" >        4       26       28       29       36 </v>
   <v type="int" >        4       28       29       36       38 </v>
   <v type="int" >        4       27       29       36       37 </v>
   <v type="int" >        4       29       36       37       39 </v>
   <v type="int" >        4       29       36       38       39 </v>
   <v type="int" >        4       26       27       28       37 </v>
   <v type="int" >        4       27       28       29       37 </v>
   <v type="int" >        4       28       29       37       39 </v>
   <v type="int" >        4       26       28       36       37 </v>
   <v type="int" >        4       28       36       37       38 </v>
   <v type="int" >        4       28       37       38       39 </v>
   <v type="int" >        4       25       26       26       36 </v>
   <v type="int" >        4       26       26       28       36 </v>
   <v type="int" >        4       26       28       36       38 </v>
   <v type="int" >        4       25       26       35       36 </v>
   <v type="int" >        4       26       35       36       36 </v>
   <v type="int" >        4       26       36       36       38 </v>
   <v type="int" >        4       22       23       25       35 </v>
   <v type="int" >        4       23       25       26       35 </v>
   <v type="int" >        4       23       26       35       36 </v>
   <v type="int" >        4       22       23       32       35 </v>
   <v type="int" >        4       23       32       33       35 </v>
   <v type="int" >        4       23       33       35       36 </v>
   <v type="int" >        4       28       29       30       38 </v>
   <v type="int" >        4       29       30       38       39 </v>
   <v type="int" >        4       30       38       39       40 </v>
   <v type="int" >        4       28       29       29       39 </v>
   <v type="int" >        4       29       29       30       39 </v>
   <v type="int" >        4       29       30       39       40 </v>
   <v type="int" >        4       28       29       38       39 </v>
   <v type="int" >        4       29       38       39       39 </v>
   <v type="int" >        4       29       39       39       40 </v>
   <v type="int" >        4       26       27       28       38 </v>
   <v type="int" >        4       27       28       29       38 </v>
   <v type="int" >        4       27       29       38       39 </v>
   <v type="int" >        4       26       27       36       38 </v>
   <v type="int" >        4       27       36       37       38 </v>
   <v type="int" >        4       27       37       38       39 </v>
   <v type="int" >        4       23       24       26       36 </v>
   <v type="int" >        4       24       26       27       36 </v>
   <v type="int" >        4       24       27       36       37 </v>
   <v type="int" >        4       23       24       33       36 </v>
   <v type="int" >        4       24       33       34       36 </v>
   <v type="int" >        4       24       34       36       37 </v>
   <v type="int" >        4       28       29       30       40 </v>
   <v type="int" >        4       28       29       39       40 </v>
   <v type="int" >        4       28       38       39       40 </v>
   <v type="int" >        4       26       27       29       39 </v>
   <v type="int" >        4       26       28       29       39 </v>
   <v type="int" >        4       26       28       38       39 </v>
   <v type="int" >        4       26       27       37       39 </v>
   <v type="int" >        4       26       36       37       39 </v>
   <v type="int" >        4       26       36       38       39 </v>
   <v type="int" >        4       23       24       27       37 </v>
   <v type="int" >        4       23       26       27       37 </v>
   <v type="int" >        4       23       26       36       37 </v>
   <v type="int" >        4       23       24       34       37 </v>
   <v type="int" >        4       23       33       34       37 </v>
   <v type="int" >        4       23       33       36       37 </v>
   <v type="int" >        4       25       26       28       38 </v>
   <v type="int" >        4       25       26       36       38 </v>
   <v type="int" >        4       25       35       36       38 </v>
   <v type="int" >        4       22       23       26       36 </v>
   <v type="int" >        4       22       25       26       36 </v>
   <v type="int" >        4       22       25       35       36 </v>
   <v type="int" >        4       22       23       33       36 </v>
   <v type="int" >        4       22       32       33       36 </v>
   <v type="int" >        4       22       32       35       36 </v>
   <v type="int" >        4       21       22       25       35 </v>
   <v type="int" >        4       21       22       32       35 </v>
   <v type="int" >        4       21       31       32       35 </v>
   <v type="int" >        4       31       31       32       35 </v>
   <v type="int" >        4       31       32       32       35 </v>
   <v type="int" >        4       31       32       35       35 </v>
   <v type="int" >        4       32       32       33       36 </v>
   <v type="int" >        4       32       32       35       36 </v>
   <v type="int" >        4       32       35       35       36 </v>
   <v type="int" >        4       32       33       33       36 </v>
   <v type="int" >        4       32       33       36       36 </v>
   <v type="int" >        4       32       35       36       36 </v>
   <v type="int" >        4       33       33       34       37 </v>
   <v type="int" >        4       33       33       36       37 </v>
   <v type="int" >        4       33       36       36       37 </v>
   <v type="int" >        4       33       34       34       37 </v>
   <v type="int" >        4       33       34       37       37 </v>
   <v type="int" >        4       33       36       37       37 </v>
   <v type="int" >        4       33       34       34       36 </v>
   <v type="int" >        4       34       34       36       37 </v>
   <v type="int" >        4       34       36       37       37 </v>
   <v type="int" >        4       33       33       34       36 </v>
   <v type="int" >        4       33       34       36       36 </v>
   <v type="int" >        4       34       36       36       37 </v>
   <v type="int" >        4       32       33       33       35 </v>
   <v type="int" >        4       33       33       35       36 </v>
   <v type="int" >        4       33       35       36       36 </v>
   <v type="int" >        4       32       32       33       35 </v>
   <v type="int" >        4       32       33       35       35 </v>
   <v type="int" >        4       33       35       35       36 </v>
   <v type="int" >        4       31       32       32       32 </v>
   <v type="int" >        4       32       32       32       35 </v>
   <v type="int" >        2       32       32       35       35 </v>
   <v type="int" >        2       31       31       32       32 </v>
   <v type="int" >        4       35       35       36       38 </v>
   <v type="int" >        4       35       36       36       38 </v>
   <v type="int" >        4       35       36       38       38 </v>
   <v type="int" >        4       36       36       37       39 </v>
   <v type="int" >        4       36       36       38       39 </v>
   <v type="int" >        4       36       38       38       39 </v>
   <v type="int" >        4       36       37       37       39 </v>
   <v type="int" >        4       36       37       39       39 </v>
   <v type="int" >        4       36       38       39       39 </v>
   <v type="int" >        4       36       37       37       38 </v>
   <v type="int" >        4       37       37       38       39 </v>
   <v type="int" >        4       37       38       39       39 </v>
   <v type="int" >        4       36       36       37       38 </v>
   <v type="int" >        4       36       37       38       38 </v>
   <v type="int" >        4       37       38       38       39 </v>
   <v type="int" >        4       35       36       36       36 </v>
   <v type="int" >        4       36       36       36       38 </v>
   <v type="int" >        2       36       36       38       38 </v>
   <v type="int" >        2       35       35       36       36 </v>
   <v type="int" >        4       38       38       39       40 </v>
   <v type="int" >        4       38       39       39       40 </v>
   <v type="int" >        4       38       39       40       40 </v>
   <v type="int" >        4       38       39       39       39 </v>
   <v type="int" >        4       39       39       39       40 </v>
   <v type="int" >        2       39       39       40       40 </v>
   <v type="int" >        2       38       38       39       39 </v>
  </varray>
  <i name="volumeweight">      0.00066138 </i>
 </kpoints>
 <parameters>
  <separator name="general" >
   <i type="string" name="SYSTEM">unknown system</i>
   <i type="logical" name="LCOMPAT"> F  </i>
  </separator>
  <separator name="electronic" >
   <i type="string" name="PREC">accura</i>
   <i name="ENMAX">    600.00000000</i>
   <i name="ENAUG">    644.87300000</i>
   <i name="EDIFF">      0.00000001</i>
   <i type="int" name="IALGO">    38</i>
   <i type="int" name="IWAVPR">    10</i>
   <i type="int" name="NBANDS">    40</i>
   <i name="NELECT">     48.00000000</i>
   <i type="int" name="TURBO">     0</i>
   <i type="int" name="IRESTART">     0</i>
   <i type="int" name="NREBOOT">     0</i>
   <i type="int" name="NMIN">     0</i>
   <i name="EREF">      0.00000000</i>
   <separator name="electronic smearing" >
    <i type="int" name="ISMEAR">    -5</i>
    <i name="SIGMA">      0.05000000</i>
    <i name="KSPACING">      0.50000000</i>
    <i type="logical" name="KGAMMA"> T  </i>
   </separator>
   <separator name="electronic projectors" >
    <i type="logical" name="LREAL"> F  </i>
    <v name="ROPT">      0.00000000      0.00000000      0.00000000      0.00000000</v>
    <i type="int" name="LMAXPAW">  -100</i>
    <i type="int" name="LMAXMIX">     4</i>
    <i type="logical" name="NLSPLINE"> F  </i>
   </separator>
   <separator name="electronic startup" >
    <i type="int" name="ISTART">     0</i>
    <i type="int" name="ICHARG">     2</i>
    <i type="int" name="INIWAV">     1</i>
   </separator>
   <separator name="electronic spin" >
    <i type="int" name="ISPIN">     1</i>
    <i type="logical" name="LNONCOLLINEAR"> F  </i>
    <v name="MAGMOM">      1.00000000      1.00000000      1.00000000      1.00000000      1.00000000      1.00000000      1.00000000      1.00000000      1.00000000      1.00000000      1.00000000      1.00000000      1.00000000      1.00000000      1.00000000      1.00000000</v>
    <i name="NUPDOWN">     -1.00000000</i>
    <i type="logical" name="LSORBIT"> F  </i>
    <v name="SAXIS">      0.00000000      0.00000000      1.00000000</v>
    <i type="logical" name="LSPIRAL"> F  </i>
    <v name="QSPIRAL">      0.00000000      0.00000000      0.00000000</v>
    <i type="logical" name="LZEROZ"> F  </i>
   </separator>
   <separator name="electronic exchange-correlation" >
    <i type="logical" name="LASPH"> F  </i>
    <i type="logical" name="LMETAGGA"> F  </i>
   </separator>
   <separator name="electronic convergence" >
    <i type="int" name="NELM">    60</i>
    <i type="int" name="NELMDL">     0</i>
    <i type="int" name="NELMIN">     2</i>
    <i name="ENINI">    600.00000000</i>
    <separator name="electronic convergence detail" >
     <i type="logical" name="LDIAG"> T  </i>
     <i type="logical" name="LSUBROT"> F  </i>
     <i name="WEIMIN">      0.00000000</i>
     <i name="EBREAK">      0.00000000</i>
     <i name="DEPER">      0.30000000</i>
     <i type="int" name="NRMM">     4</i>
     <i name="TIME">      0.40000000</i>
    </separator>
   </separator>
   <separator name="electronic mixer" >
    <i name="AMIX">      0.40000000</i>
    <i name="BMIX">      1.00000000</i>
    <i name="AMIN">      0.10000000</i>
    <i name="AMIX_MAG">      1.60000000</i>
    <i name="BMIX_MAG">      1.00000000</i>
    <separator name="electronic mixer details" >
     <i type="int" name="IMIX">     4</i>
     <i type="logical" name="MIXFIRST"> F  </i>
     <i type="int" name="MAXMIX">   -45</i>
     <i name="WC">    100.00000000</i>
     <i type="int" name="INIMIX">     1</i>
     <i type="int" name="MIXPRE">     1</i>
     <i type="int" name="MREMOVE">     5</i>
    </separator>
   </separator>
   <separator name="electronic dipolcorrection" >
    <i type="logical" name="LDIPOL"> F  </i>
    <i type="logical" name="LMONO"> F  </i>
    <i type="int" name="IDIPOL">     0</i>
    <i name="EPSILON">      1.00000000</i>
    <v name="DIPOL">   -100.00000000   -100.00000000   -100.00000000</v>
    <i name="EFIELD">      0.00000000</i>
   </separator>
  </separator>
  <separator name="grids" >
   <i type="int" name="NGX">    48</i>
   <i type="int" name="NGY">    48</i>
   <i type="int" name="NGZ">    40</i>
   <i type="int" name="NGXF">    96</i>
   <i type="int" name="NGYF">    96</i>
   <i type="int" name="NGZF">    80</i>
   <i type="logical" name="ADDGRID"> F  </i>
  </separator>
  <separator name="ionic" >
   <i type="int" name="NSW">     0</i>
   <i type="int" name="IBRION">    -1</i>
   <i type="int" name="MDALGO">     0</i>
   <i type="int" name="ISIF">     2</i>
   <i name="PSTRESS">      0.00000000</i>
   <i name="EDIFFG">      0.00000010</i>
   <i type="int" name="NFREE">     0</i>
   <i name="POTIM">      0.40000000</i>
   <i name="SMASS">     -3.00000000</i>
   <i name="SCALEE">      1.00000000</i>
  </separator>
  <separator name="ionic md" >
   <i name="TEBEG">      0.00010000</i>
   <i name="TEEND">      0.00010000</i>
   <i type="int" name="NBLOCK">     1</i>
   <i type="int" name="KBLOCK">     1</i>
   <i type="int" name="NPACO">   256</i>
   <i name="APACO">     16.00000000</i>
  </separator>
  <separator name="symmetry" >
   <i type="int" name="ISYM">     2</i>
   <i name="SYMPREC">      0.00001000</i>
  </separator>
  <separator name="dos" >
   <i type="int" name="LORBIT">     0</i>
   <v name="RWIGS">     -1.00000000     -1.00000000     -1.00000000     -1.00000000</v>
   <i type="int" name="NEDOS">   301</i>
   <i name="EMIN">     10.00000000</i>
   <i name="EMAX">    -10.00000000</i>
   <i name="EFERMI">      0.00000000</i>
  </separator>
  <separator name="writing" >
   <i type="int" name="NWRITE">     2</i>
   <i type="logical" name="LWAVE"> T  </i>
   <i type="logical" name="LDOWNSAMPLE"> F  </i>
   <i type="logical" name="LCHARG"> T  </i>
   <i type="logical" name="LPARD"> F  </i>
   <i type="logical" name="LVTOT"> F  </i>
   <i type="logical" name="LVHAR"> F  </i>
   <i type="logical" name="LELF"> F  </i>
   <i type="logical" name="LOPTICS"> F  </i>
   <v name="STM">      0.00000000      0.00000000      0.00000000      0.00000000      0.00000000      0.00000000      0.00000000</v>
  </separator>
  <separator name="performance" >
   <i type="int" name="NPAR">     8</i>
   <i type="int" name="NSIM">     4</i>
   <i type="int" name="NBLK">    -1</i>
   <i type="logical" name="LPLANE"> T  </i>
   <i type="logical" name="LSCALAPACK"> F  </i>
   <i type="logical" name="LSCAAWARE"> F  </i>
   <i type="logical" name="LSCALU"> T  </i>
   <i type="logical" name="LASYNC"> F  </i>
   <i type="logical" name="LORBITALREAL"> F  </i>
  </separator>
  <separator name="miscellaneous" >
   <i type="int" name="IDIOT">     3</i>
   <i type="int" name="ISPECIAL">     0</i>
   <i type="logical" name="LMUSIC"> F  </i>
   <v name="POMASS">     12.01100000     16.00000000     14.00100000      1.00000000</v>
   <v name="DARWINR">      0.00000000      0.00000000      0.00000000      0.00000000</v>
   <v name="DARWINV">      1.00000000      1.00000000      1.00000000      1.00000000</v>
   <i type="logical" name="LCORR"> T  </i>
  </separator>
  <i type="logical" name="GGA_COMPAT"> T  </i>
  <i type="logical" name="LBERRY"> F  </i>
  <i type="int" name="ICORELEVEL">     0</i>
  <i type="logical" name="LDAU"> F  </i>
  <i type="int" name="I_CONSTRAINED_M">     0</i>
  <separator name="electronic exchange-correlation" >
   <i type="string" name="GGA">--</i>
   <i type="int" name="VOSKOWN">     0</i>
   <i type="logical" name="LHFCALC"> F  </i>
   <i type="string" name="PRECFOCK"></i>
   <i type="logical" name="LSYMGRAD"> F  </i>
   <i type="logical" name="LHFONE"> F  </i>
   <i type="logical" name="LRHFCALC"> F  </i>
   <i type="logical" name="LTHOMAS"> F  </i>
   <i type="logical" name="LMODELHF"> F  </i>
   <i name="ENCUT4O">     -1.00000000</i>
   <i type="int" name="EXXOEP">     0</i>
   <i type="int" name="FOURORBIT">     0</i>
   <i name="AEXX">      0.00000000</i>
   <i name="HFALPHA">      0.00000000</i>
   <i name="MCALPHA">      0.00000000</i>
   <i name="ALDAX">      1.00000000</i>
   <i name="AGGAX">      1.00000000</i>
   <i name="ALDAC">      1.00000000</i>
   <i name="AGGAC">      1.00000000</i>
   <i type="int" name="NKREDX">     1</i>
   <i type="int" name="NKREDY">     1</i>
   <i type="int" name="NKREDZ">     1</i>
   <i type="logical" name="SHIFTRED"> F  </i>
   <i type="logical" name="ODDONLY"> F  </i>
   <i type="logical" name="EVENONLY"> F  </i>
   <i type="int" name="LMAXFOCK">     0</i>
   <i type="int" name="NMAXFOCKAE">     0</i>
   <i type="logical" name="LFOCKAEDFT"> F  </i>
   <i name="HFSCREEN">      0.00000000</i>
   <i name="HFSCREENC">      0.00000000</i>
   <i type="int" name="NBANDSGWLOW">     0</i>
  </separator>
  <separator name="vdW DFT" >
   <i type="logical" name="LUSE_VDW"> F  </i>
   <i name="Zab_VDW">     -0.84910000</i>
   <i name="PARAM1">      0.12340000</i>
   <i name="PARAM2">      1.00000000</i>
   <i name="PARAM3">      0.00000000</i>
  </separator>
  <separator name="model GW" >
   <i type="int" name="MODEL_GW">     0</i>
   <i name="MODEL_EPS0">      5.31183254</i>
   <i name="MODEL_ALPHA">      1.00000000</i>
  </separator>
  <separator name="linear response parameters" >
   <i type="logical" name="LEPSILON"> F  </i>
   <i type="logical" name="LRPA"> F  </i>
   <i type="logical" name="LNABLA"> F  </i>
   <i type="logical" name="LVEL"> F  </i>
   <i type="int" name="KINTER">     0</i>
   <i name="CSHIFT">      0.10000000</i>
   <i name="OMEGAMAX">     -1.00000000</i>
   <i name="DEG_THRESHOLD">      0.00200000</i>
   <i name="RTIME">     -0.10000000</i>
   <i name="WPLASMAI">      0.00000000</i>
   <v name="DFIELD">      0.00000000      0.00000000      0.00000000</v>
   <v name="WPLASMA">      0.00000000      0.00000000      0.00000000      0.00000000      0.00000000      0.00000000      0.00000000      0.00000000      0.00000000</v>
  </separator>
  <separator name="orbital magnetization" >
   <i type="logical" name="NUCIND"> F  </i>
   <v name="MAGPOS">      0.00000000      0.00000000      0.00000000</v>
   <i type="logical" name="LNICSALL"> T  </i>
   <i type="logical" name="ORBITALMAG"> F  </i>
   <i type="logical" name="LMAGBLOCH"> F  </i>
   <i type="logical" name="LCHIMAG"> F  </i>
   <i type="logical" name="LGAUGE"> T  </i>
   <i type="int" name="MAGATOM">     0</i>
   <v name="MAGDIPOL">      0.00000000      0.00000000      0.00000000</v>
   <v name="AVECCONST">      0.00000000      0.00000000      0.00000000</v>
  </separator>
  <separator name="response functions" >
   <i type="logical" name="LADDER"> F  </i>
   <i type="logical" name="LRPAFORCE"> F  </i>
   <i type="logical" name="LFXC"> F  </i>
   <i type="logical" name="LHARTREE"> T  </i>
   <i type="int" name="IBSE">     0</i>
   <v type="int" name="KPOINT">    -1     0     0     0</v>
   <i type="logical" name="LTCTE"> F  </i>
   <i type="logical" name="LTETE"> F  </i>
   <i type="logical" name="LTRIPLET"> F  </i>
   <i type="logical" name="LFXCEPS"> F  </i>
   <i type="logical" name="LFXHEG"> F  </i>
   <i type="int" name="NATURALO">     2</i>
   <i type="logical" name="L2ORDER"> F  </i>
   <i type="logical" name="LMP2LT"> F  </i>
   <i type="logical" name="LUSEW"> F  </i>
   <i name="ENCUTGW">     -2.00000000</i>
   <i name="ENCUTGWSOFT">     -2.00000000</i>
   <i name="ENCUTLF">     -1.00000000</i>
   <i type="int" name="LMAXMP2">    -1</i>
   <i name="SCISSOR">      0.00000000</i>
   <i type="int" name="NOMEGA">     0</i>
   <i type="int" name="NOMEGAR">     0</i>
   <i type="int" name="NBANDSGW">    -1</i>
   <i type="int" name="NBANDSO">    -1</i>
   <i type="int" name="NBANDSV">    -1</i>
   <i type="int" name="NELM">     1</i>
   <i type="int" name="NELMHF">     1</i>
   <i type="int" name="DIM">     3</i>
   <i type="int" name="ANTIRES">     0</i>
   <i name="OMEGAMAX">    -30.00000000</i>
   <i name="OMEGAMIN">    -30.00000000</i>
   <i name="OMEGATL">   -200.00000000</i>
   <i type="int" name="OMEGAGRID">   140</i>
   <i name="CSHIFT">     -0.10000000</i>
   <i type="logical" name="SELFENERGY"> F  </i>
   <i type="logical" name="LSPECTRAL"> F  </i>
   <i type="logical" name="LSPECTRALGW"> F  </i>
   <i type="logical" name="LSINGLES"> F  </i>
   <i type="logical" name="LFERMIGW"> F  </i>
   <i type="logical" name="ODDONLYGW"> F  </i>
   <i type="logical" name="EVENONLYGW"> F  </i>
   <i type="int" name="NKREDLFX">     1</i>
   <i type="int" name="NKREDLFY">     1</i>
   <i type="int" name="NKREDLFZ">     1</i>
   <i type="int" name="MAXMEM">  2800</i>
   <i type="int" name="TELESCOPE">     0</i>
   <i type="int" name="TAUPAR">     1</i>
   <i type="int" name="OMEGAPAR">    -1</i>
   <i name="LAMBDA">      1.00000000</i>
  </separator>
  <separator name="External order field" >
   <i name="OFIELD_KAPPA">      0.00000000</i>
   <v name="OFIELD_K">      0.00000000      0.00000000      0.00000000</v>
   <i name="OFIELD_Q6_NEAR">      0.00000000</i>
   <i name="OFIELD_Q6_FAR">      0.00000000</i>
   <i name="OFIELD_A">      0.00000000</i>
  </separator>
 </parameters>
 <atominfo>
  <atoms>      16 </atoms>
  <types>       4 </types>
  <array name="atoms" >
   <dimension dim="1">ion</dimension>
   <field type="string">element</field>
   <field type="int">atomtype</field>
   <set>
    <rc><c>C </c><c>   1</c></rc>
    <rc><c>C </c><c>   1</c></rc>
    <rc><c>O </c><c>   2</c></rc>
    <rc><c>O </c><c>   2</c></rc>
    <rc><c>N </c><c>   3</c></rc>
    <rc><c>N </c><c>   3</c></rc>
    <rc><c>N </c><c>   3</c></rc>
    <rc><c>N </c><c>   3</c></rc>
    <rc><c>H </c><c>   4</c></rc>
    <rc><c>H </c><c>   4</c></rc>
    <rc><c>H </c><c>   4</c></rc>
    <rc><c>H </c><c>   4</c></rc>
    <rc><c>H </c><c>   4</c></rc>
    <rc><c>H </c><c>   4</c></rc>
    <rc><c>H </c><c>   4</c></rc>
    <rc><c>H </c><c>   4</c></rc>
   </set>
  </array>
  <array name="atomtypes" >
   <dimension dim="1">type</dimension>
   <field type="int">atomspertype</field>
   <field type="string">element</field>
   <field>mass</field>
   <field>valence</field>
   <field type="string">pseudopotential</field>
   <set>
    <rc><c>   2</c><c>C </c><c>     12.01100000</c><c>      4.00000000</c><c>  PAW_PBE C 08Apr2002                   </c></rc>
    <rc><c>   2</c><c>O </c><c>     16.00000000</c><c>      6.00000000</c><c>  PAW_PBE O 08Apr2002                   </c></rc>
    <rc><c>   4</c><c>N </c><c>     14.00100000</c><c>      5.00000000</c><c>  PAW_PBE N 08Apr2002                   </c></rc>
    <rc><c>   8</c><c>H </c><c>      1.00000000</c><c>      1.00000000</c><c>  PAW_PBE H 15Jun2001                   </c></rc>
   </set>
  </array>
 </atominfo>
 <structure name="initialpos" >
  <crystal>
   <varray name="basis" >
    <v>       5.51946626       0.00000000       0.00000000 </v>
    <v>       0.00000000       5.51946626       0.00000000 </v>
    <v>       0.00000000       0.00000000       4.64963585 </v>
   </varray>
   <i name="volume">    141.64886774 </i>
   <varray name="rec_basis" >
    <v>       0.18117694       0.00000000       0.00000000 </v>
    <v>       0.00000000       0.18117694       0.00000000 </v>
    <v>       0.00000000       0.00000000       0.21507061 </v>
   </varray>
  </crystal>
  <varray name="positions" >
   <v>       0.00000000       0.50000000       0.32659965 </v>
   <v>       0.50000000       0.00000000       0.67340035 </v>
   <v>       0.00000000       0.50000000       0.60180540 </v>
   <v>       0.50000000       0.00000000       0.39819460 </v>
   <v>       0.14763624       0.64763624       0.17656203 </v>
   <v>       0.64763624       0.85236376       0.82343797 </v>
   <v>       0.85236376       0.35236376       0.17656203 </v>
   <v>       0.35236376       0.14763624       0.82343797 </v>
   <v>       0.26242757       0.76242757       0.28193159 </v>
   <v>       0.76242757       0.73757243       0.71806841 </v>
   <v>       0.73757243       0.23757243       0.28193159 </v>
   <v>       0.23757243       0.26242757       0.71806841 </v>
   <v>       0.14537472       0.64537472       0.95729397 </v>
   <v>       0.64537472       0.85462528       0.04270603 </v>
   <v>       0.85462528       0.35462528       0.95729397 </v>
   <v>       0.35462528       0.14537472       0.04270603 </v>
  </varray>
 </structure>
 <calculation>
  <scstep>
   <time name="dav">    4.81    4.86</time>
   <time name="total">    4.89    4.94</time>
   <energy>
    <i name="alphaZ">     65.42746567 </i>
    <i name="ewald">  -1137.94178206 </i>
    <i name="hartreedc">   -963.10065865 </i>
    <i name="XCdc">    181.92081024 </i>
    <i name="pawpsdc">   1746.94619248 </i>
    <i name="pawaedc">  -1756.51730407 </i>
    <i name="eentropy">      0.00000000 </i>
    <i name="bandstr">   -191.61890712 </i>
    <i name="atom">   2317.08167386 </i>
    <i name="e_fr_energy">    262.19749035 </i>
    <i name="e_wo_entrp">    262.19749035 </i>
    <i name="e_0_energy">    262.19749035 </i>
   </energy>
  </scstep>
  <scstep>
   <time name="dav">    5.88    5.93</time>
   <time name="total">    5.88    5.94</time>
   <energy>
    <i name="e_fr_energy">    -82.80515198 </i>
    <i name="e_wo_entrp">    -82.80515198 </i>
    <i name="e_0_energy">    -82.80515198 </i>
   </energy>
  </scstep>
  <scstep>
   <time name="dav">    5.71    5.76</time>
   <time name="total">    5.72    5.77</time>
   <energy>
    <i name="e_fr_energy">   -105.54371265 </i>
    <i name="e_wo_entrp">   -105.54371265 </i>
    <i name="e_0_energy">   -105.54371265 </i>
   </energy>
  </scstep>
  <scstep>
   <time name="dav">    5.75    5.80</time>
   <time name="total">    5.75    5.81</time>
   <energy>
    <i name="e_fr_energy">   -105.82048342 </i>
    <i name="e_wo_entrp">   -105.82048342 </i>
    <i name="e_0_energy">   -105.82048342 </i>
   </energy>
  </scstep>
  <scstep>
   <time name="dav">    5.75    5.80</time>
   <time name="total">    5.90    5.95</time>
   <energy>
    <i name="e_fr_energy">   -105.82529505 </i>
    <i name="e_wo_entrp">   -105.82529505 </i>
    <i name="e_0_energy">   -105.82529505 </i>
   </energy>
  </scstep>
  <scstep>
   <time name="dav">    5.64    5.69</time>
   <time name="total">    5.85    5.90</time>
   <energy>
    <i name="e_fr_energy">    -97.83355419 </i>
    <i name="e_wo_entrp">    -97.83355419 </i>
    <i name="e_0_energy">    -97.83355419 </i>
   </energy>
  </scstep>
  <scstep>
   <time name="dav">    5.57    5.62</time>
   <time name="total">    5.78    5.83</time>
   <energy>
    <i name="e_fr_energy">    -97.42057778 </i>
    <i name="e_wo_entrp">    -97.42057778 </i>
    <i name="e_0_energy">    -97.42057778 </i>
   </energy>
  </scstep>
  <scstep>
   <time name="dav">    5.69    5.74</time>
   <time name="total">    5.90    5.95</time>
   <energy>
    <i name="e_fr_energy">    -97.32714109 </i>
    <i name="e_wo_entrp">    -97.32714109 </i>
    <i name="e_0_energy">    -97.32714109 </i>
   </energy>
  </scstep>
  <scstep>
   <time name="dav">    5.69    5.74</time>
   <time name="total">    5.90    5.95</time>
   <energy>
    <i name="e_fr_energy">    -97.32387365 </i>
    <i name="e_wo_entrp">    -97.32387365 </i>
    <i name="e_0_energy">    -97.32387365 </i>
   </energy>
  </scstep>
  <scstep>
   <time name="dav">    5.34    5.39</time>
   <time name="total">    5.57    5.62</time>
   <energy>
    <i name="e_fr_energy">    -97.32633946 </i>
    <i name="e_wo_entrp">    -97.32633946 </i>
    <i name="e_0_energy">    -97.32633946 </i>
   </energy>
  </scstep>
  <scstep>
   <time name="dav">    5.19    5.23</time>
   <time name="total">    5.40    5.45</time>
   <energy>
    <i name="e_fr_energy">    -97.32687788 </i>
    <i name="e_wo_entrp">    -97.32687788 </i>
    <i name="e_0_energy">    -97.32687788 </i>
   </energy>
  </scstep>
  <scstep>
   <time name="dav">    5.20    5.27</time>
   <time name="total">    5.42    5.48</time>
   <energy>
    <i name="e_fr_energy">    -97.32707486 </i>
    <i name="e_wo_entrp">    -97.32707486 </i>
    <i name="e_0_energy">    -97.32707486 </i>
   </energy>
  </scstep>
  <scstep>
   <time name="dav">    5.71    5.79</time>
   <time name="total">    5.96    6.05</time>
   <energy>
    <i name="e_fr_energy">    -97.32708946 </i>
    <i name="e_wo_entrp">    -97.32708946 </i>
    <i name="e_0_energy">    -97.32708946 </i>
   </energy>
  </scstep>
  <scstep>
   <time name="dav">    6.08    6.16</time>
   <time name="total">    6.32    6.40</time>
   <energy>
    <i name="e_fr_energy">    -97.32708900 </i>
    <i name="e_wo_entrp">    -97.32708900 </i>
    <i name="e_0_energy">    -97.32708900 </i>
   </energy>
  </scstep>
  <scstep>
   <time name="dav">    6.03    6.13</time>
   <time name="total">    6.30    6.40</time>
   <energy>
    <i name="e_fr_energy">    -97.32708928 </i>
    <i name="e_wo_entrp">    -97.32708928 </i>
    <i name="e_0_energy">    -97.32708928 </i>
   </energy>
  </scstep>
  <scstep>
   <time name="dav">    6.42    6.50</time>
   <time name="total">    6.48    6.57</time>
   <energy>
    <i name="alphaZ">     65.42746567 </i>
    <i name="ewald">  -1137.94178206 </i>
    <i name="hartreedc">  -1094.48134346 </i>
    <i name="XCdc">    190.55893248 </i>
    <i name="pawpsdc">   4310.86061722 </i>
    <i name="pawaedc">  -4322.50837194 </i>
    <i name="eentropy">      0.00000000 </i>
    <i name="bandstr">   -426.32428107 </i>
    <i name="atom">   2317.08167386 </i>
    <i name="e_fr_energy">    -97.32708928 </i>
    <i name="e_wo_entrp">    -97.32708928 </i>
    <i name="e_0_energy">    -97.32708928 </i>
   </energy>
  </scstep>
  <kpoints>
   <generation param="Gamma">
    <v type="int" name="divisions">       6        6        7 </v>
    <v name="usershift">      0.00000000       0.00000000       0.00000000 </v>
    <v name="genvec1">      0.16666667       0.00000000       0.00000000 </v>
    <v name="genvec2">      0.00000000       0.16666667       0.00000000 </v>
    <v name="genvec3">      0.00000000       0.00000000       0.14285714 </v>
    <v name="shift">      0.00000000       0.00000000       0.00000000 </v>
   </generation>
   <varray name="kpointlist" >
    <v>       0.00000000       0.00000000       0.00000000 </v>
    <v>       0.16666667       0.00000000       0.00000000 </v>
    <v>       0.33333333       0.00000000       0.00000000 </v>
    <v>       0.50000000       0.00000000       0.00000000 </v>
    <v>       0.00000000       0.16666667       0.00000000 </v>
    <v>       0.16666667       0.16666667       0.00000000 </v>
    <v>       0.33333333       0.16666667       0.00000000 </v>
    <v>       0.50000000       0.16666667       0.00000000 </v>
    <v>       0.00000000       0.33333333       0.00000000 </v>
    <v>       0.16666667       0.33333333       0.00000000 </v>
    <v>       0.33333333       0.33333333       0.00000000 </v>
    <v>       0.50000000       0.33333333       0.00000000 </v>
    <v>       0.00000000       0.50000000       0.00000000 </v>
    <v>       0.16666667       0.50000000       0.00000000 </v>
    <v>       0.33333333       0.50000000       0.00000000 </v>
    <v>       0.50000000       0.50000000       0.00000000 </v>
    <v>       0.00000000       0.00000000       0.14285714 </v>
    <v>       0.16666667       0.00000000       0.14285714 </v>
    <v>       0.33333333       0.00000000       0.14285714 </v>
    <v>       0.50000000       0.00000000       0.14285714 </v>
    <v>       0.00000000       0.16666667       0.14285714 </v>
    <v>       0.16666667       0.16666667       0.14285714 </v>
    <v>       0.33333333       0.16666667       0.14285714 </v>
    <v>       0.50000000       0.16666667       0.14285714 </v>
    <v>       0.00000000       0.33333333       0.14285714 </v>
    <v>       0.16666667       0.33333333       0.14285714 </v>
    <v>       0.33333333       0.33333333       0.14285714 </v>
    <v>       0.50000000       0.33333333       0.14285714 </v>
    <v>       0.00000000       0.50000000       0.14285714 </v>
    <v>       0.16666667       0.50000000       0.14285714 </v>
    <v>       0.33333333       0.50000000       0.14285714 </v>
    <v>       0.50000000       0.50000000       0.14285714 </v>
    <v>       0.00000000      -0.33333333       0.14285714 </v>
    <v>       0.16666667      -0.33333333       0.14285714 </v>
    <v>       0.33333333      -0.33333333       0.14285714 </v>
    <v>       0.50000000      -0.33333333       0.14285714 </v>
    <v>       0.00000000      -0.16666667       0.14285714 </v>
    <v>       0.16666667      -0.16666667       0.14285714 </v>
    <v>       0.33333333      -0.16666667       0.14285714 </v>
    <v>       0.50000000      -0.16666667       0.14285714 </v>
    <v>       0.00000000       0.00000000       0.28571429 </v>
    <v>       0.16666667       0.00000000       0.28571429 </v>
    <v>       0.33333333       0.00000000       0.28571429 </v>
    <v>       0.50000000       0.00000000       0.28571429 </v>
    <v>       0.00000000       0.16666667       0.28571429 </v>
    <v>       0.16666667       0.16666667       0.28571429 </v>
    <v>       0.33333333       0.16666667       0.28571429 </v>
    <v>       0.50000000       0.16666667       0.28571429 </v>
    <v>       0.00000000       0.33333333       0.28571429 </v>
    <v>       0.16666667       0.33333333       0.28571429 </v>
    <v>       0.33333333       0.33333333       0.28571429 </v>
    <v>       0.50000000       0.33333333       0.28571429 </v>
    <v>       0.00000000       0.50000000       0.28571429 </v>
    <v>       0.16666667       0.50000000       0.28571429 </v>
    <v>       0.33333333       0.50000000       0.28571429 </v>
    <v>       0.50000000       0.50000000       0.28571429 </v>
    <v>       0.00000000      -0.33333333       0.28571429 </v>
    <v>       0.16666667      -0.33333333       0.28571429 </v>
    <v>       0.33333333      -0.33333333       0.28571429 </v>
    <v>       0.50000000      -0.33333333       0.28571429 </v>
    <v>       0.00000000      -0.16666667       0.28571429 </v>
    <v>       0.16666667      -0.16666667       0.28571429 </v>
    <v>       0.33333333      -0.16666667       0.28571429 </v>
    <v>       0.50000000      -0.16666667       0.28571429 </v>
    <v>       0.00000000       0.00000000       0.42857143 </v>
    <v>       0.16666667       0.00000000       0.42857143 </v>
    <v>       0.33333333       0.00000000       0.42857143 </v>
    <v>       0.50000000       0.00000000       0.42857143 </v>
    <v>       0.00000000       0.16666667       0.42857143 </v>
    <v>       0.16666667       0.16666667       0.42857143 </v>
    <v>       0.33333333       0.16666667       0.42857143 </v>
    <v>       0.50000000       0.16666667       0.42857143 </v>
    <v>       0.00000000       0.33333333       0.42857143 </v>
    <v>       0.16666667       0.33333333       0.42857143 </v>
    <v>       0.33333333       0.33333333       0.42857143 </v>
    <v>       0.50000000       0.33333333       0.42857143 </v>
    <v>       0.00000000       0.50000000       0.42857143 </v>
    <v>       0.16666667       0.50000000       0.42857143 </v>
    <v>       0.33333333       0.50000000       0.42857143 </v>
    <v>       0.50000000       0.50000000       0.42857143 </v>
    <v>       0.00000000      -0.33333333       0.42857143 </v>
    <v>       0.16666667      -0.33333333       0.42857143 </v>
    <v>       0.33333333      -0.33333333       0.42857143 </v>
    <v>       0.50000000      -0.33333333       0.42857143 </v>
    <v>       0.00000000      -0.16666667       0.42857143 </v>
    <v>       0.16666667      -0.16666667       0.42857143 </v>
    <v>       0.33333333      -0.16666667       0.42857143 </v>
    <v>       0.50000000      -0.16666667       0.42857143 </v>
   </varray>
   <varray name="weights" >
    <v>       0.00396825 </v>
    <v>       0.00793651 </v>
    <v>       0.00793651 </v>
    <v>       0.00396825 </v>
    <v>       0.00793651 </v>
    <v>       0.01587302 </v>
    <v>       0.01587302 </v>
    <v>       0.00793651 </v>
    <v>       0.00793651 </v>
    <v>       0.01587302 </v>
    <v>       0.01587302 </v>
    <v>       0.00793651 </v>
    <v>       0.00396825 </v>
    <v>       0.00793651 </v>
    <v>       0.00793651 </v>
    <v>       0.00396825 </v>
    <v>       0.00793651 </v>
    <v>       0.01587302 </v>
    <v>       0.01587302 </v>
    <v>       0.00793651 </v>
    <v>       0.00793651 </v>
    <v>       0.01587302 </v>
    <v>       0.01587302 </v>
    <v>       0.00793651 </v>
    <v>       0.00793651 </v>
    <v>       0.01587302 </v>
    <v>       0.01587302 </v>
    <v>       0.00793651 </v>
    <v>       0.00793651 </v>
    <v>       0.01587302 </v>
    <v>       0.01587302 </v>
    <v>       0.00793651 </v>
    <v>       0.00793651 </v>
    <v>       0.01587302 </v>
    <v>       0.01587302 </v>
    <v>       0.00793651 </v>
    <v>       0.00793651 </v>
    <v>       0.01587302 </v>
    <v>       0.01587302 </v>
    <v>       0.00793651 </v>
    <v>       0.00793651 </v>
    <v>       0.01587302 </v>
    <v>       0.01587302 </v>
    <v>       0.00793651 </v>
    <v>       0.00793651 </v>
    <v>       0.01587302 </v>
    <v>       0.01587302 </v>
    <v>       0.00793651 </v>
    <v>       0.00793651 </v>
    <v>       0.01587302 </v>
    <v>       0.01587302 </v>
    <v>       0.00793651 </v>
    <v>       0.00793651 </v>
    <v>       0.01587302 </v>
    <v>       0.01587302 </v>
    <v>       0.00793651 </v>
    <v>       0.00793651 </v>
    <v>       0.01587302 </v>
    <v>       0.01587302 </v>
    <v>       0.00793651 </v>
    <v>       0.00793651 </v>
    <v>       0.01587302 </v>
    <v>       0.01587302 </v>
    <v>       0.00793651 </v>
    <v>       0.00793651 </v>
    <v>       0.01587302 </v>
    <v>       0.01587302 </v>
    <v>       0.00793651 </v>
    <v>       0.00793651 </v>
    <v>       0.01587302 </v>
    <v>       0.01587302 </v>
    <v>       0.00793651 </v>
    <v>       0.00793651 </v>
    <v>       0.01587302 </v>
    <v>       0.01587302 </v>
    <v>       0.00793651 </v>
    <v>       0.00793651 </v>
    <v>       0.01587302 </v>
    <v>       0.01587302 </v>
    <v>       0.00793651 </v>
    <v>       0.00793651 </v>
    <v>       0.01587302 </v>
    <v>       0.01587302 </v>
    <v>       0.00793651 </v>
    <v>       0.00793651 </v>
    <v>       0.01587302 </v>
    <v>       0.01587302 </v>
    <v>       0.00793651 </v>
   </varray>
   <varray name="tetrahedronlist"  type="int" >
    <v type="int" >        2        1        2        6       17 </v>
    <v type="int" >        2        1        5        6       17 </v>
    <v type="int" >        2        5        6       17       21 </v>
    <v type="int" >        2        2        6       17       18 </v>
    <v type="int" >        2        6       17       18       22 </v>
    <v type="int" >        2        6       17       21       22 </v>
    <v type="int" >        2        2        3        7       18 </v>
    <v type="int" >        2        2        6        7       18 </v>
    <v type="int" >        2        6        7       18       22 </v>
    <v type="int" >        2        3        7       18       19 </v>
    <v type="int" >        2        7       18       19       23 </v>
    <v type="int" >        2        7       18       22       23 </v>
    <v type="int" >        2        3        4        8       19 </v>
    <v type="int" >        2        3        7        8       19 </v>
    <v type="int" >        2        7        8       19       23 </v>
    <v type="int" >        2        4        8       19       20 </v>
    <v type="int" >        2        8       19       20       24 </v>
    <v type="int" >        2        8       19       23       24 </v>
    <v type="int" >        2        3        4        7       20 </v>
    <v type="int" >        2        4        7        8       20 </v>
    <v type="int" >        2        7        8       20       24 </v>
    <v type="int" >        2        3        7       19       20 </v>
    <v type="int" >        2        7       19       20       23 </v>
    <v type="int" >        2        7       20       23       24 </v>
    <v type="int" >        2        2        3        6       19 </v>
    <v type="int" >        2        3        6        7       19 </v>
    <v type="int" >        2        6        7       19       23 </v>
    <v type="int" >        2        2        6       18       19 </v>
    <v type="int" >        2        6       18       19       22 </v>
    <v type="int" >        2        6       19       22       23 </v>
    <v type="int" >        2        1        2        5       18 </v>
    <v type="int" >        2        2        5        6       18 </v>
    <v type="int" >        2        5        6       18       22 </v>
    <v type="int" >        2        1        5       17       18 </v>
    <v type="int" >        2        5       17       18       21 </v>
    <v type="int" >        2        5       18       21       22 </v>
    <v type="int" >        2        5        6       10       21 </v>
    <v type="int" >        2        5        9       10       21 </v>
    <v type="int" >        2        9       10       21       25 </v>
    <v type="int" >        2        6       10       21       22 </v>
    <v type="int" >        2       10       21       22       26 </v>
    <v type="int" >        2       10       21       25       26 </v>
    <v type="int" >        2        6        7       11       22 </v>
    <v type="int" >        2        6       10       11       22 </v>
    <v type="int" >        2       10       11       22       26 </v>
    <v type="int" >        2        7       11       22       23 </v>
    <v type="int" >        2       11       22       23       27 </v>
    <v type="int" >        2       11       22       26       27 </v>
    <v type="int" >        2        7        8       12       23 </v>
    <v type="int" >        2        7       11       12       23 </v>
    <v type="int" >        2       11       12       23       27 </v>
    <v type="int" >        2        8       12       23       24 </v>
    <v type="int" >        2       12       23       24       28 </v>
    <v type="int" >        2       12       23       27       28 </v>
    <v type="int" >        2        7        8       11       24 </v>
    <v type="int" >        2        8       11       12       24 </v>
    <v type="int" >        2       11       12       24       28 </v>
    <v type="int" >        2        7       11       23       24 </v>
    <v type="int" >        2       11       23       24       27 </v>
    <v type="int" >        2       11       24       27       28 </v>
    <v type="int" >        2        6        7       10       23 </v>
    <v type="int" >        2        7       10       11       23 </v>
    <v type="int" >        2       10       11       23       27 </v>
    <v type="int" >        2        6       10       22       23 </v>
    <v type="int" >        2       10       22       23       26 </v>
    <v type="int" >        2       10       23       26       27 </v>
    <v type="int" >        2        5        6        9       22 </v>
    <v type="int" >        2        6        9       10       22 </v>
    <v type="int" >        2        9       10       22       26 </v>
    <v type="int" >        2        5        9       21       22 </v>
    <v type="int" >        2        9       21       22       25 </v>
    <v type="int" >        2        9       22       25       26 </v>
    <v type="int" >        2        9       10       14       25 </v>
    <v type="int" >        2        9       13       14       25 </v>
    <v type="int" >        2       13       14       25       29 </v>
    <v type="int" >        2       10       14       25       26 </v>
    <v type="int" >        2       14       25       26       30 </v>
    <v type="int" >        2       14       25       29       30 </v>
    <v type="int" >        2       10       11       15       26 </v>
    <v type="int" >        2       10       14       15       26 </v>
    <v type="int" >        2       14       15       26       30 </v>
    <v type="int" >        2       11       15       26       27 </v>
    <v type="int" >        2       15       26       27       31 </v>
    <v type="int" >        2       15       26       30       31 </v>
    <v type="int" >        2       11       12       16       27 </v>
    <v type="int" >        2       11       15       16       27 </v>
    <v type="int" >        2       15       16       27       31 </v>
    <v type="int" >        2       12       16       27       28 </v>
    <v type="int" >        2       16       27       28       32 </v>
    <v type="int" >        2       16       27       31       32 </v>
    <v type="int" >        2       11       12       15       28 </v>
    <v type="int" >        2       12       15       16       28 </v>
    <v type="int" >        2       15       16       28       32 </v>
    <v type="int" >        2       11       15       27       28 </v>
    <v type="int" >        2       15       27       28       31 </v>
    <v type="int" >        2       15       28       31       32 </v>
    <v type="int" >        2       10       11       14       27 </v>
    <v type="int" >        2       11       14       15       27 </v>
    <v type="int" >        2       14       15       27       31 </v>
    <v type="int" >        2       10       14       26       27 </v>
    <v type="int" >        2       14       26       27       30 </v>
    <v type="int" >        2       14       27       30       31 </v>
    <v type="int" >        2        9       10       13       26 </v>
    <v type="int" >        2       10       13       14       26 </v>
    <v type="int" >        2       13       14       26       30 </v>
    <v type="int" >        2        9       13       25       26 </v>
    <v type="int" >        2       13       25       26       29 </v>
    <v type="int" >        2       13       26       29       30 </v>
    <v type="int" >        2       10       13       14       29 </v>
    <v type="int" >        2        9       10       13       29 </v>
    <v type="int" >        2        9       10       29       33 </v>
    <v type="int" >        2       10       14       29       30 </v>
    <v type="int" >        2       10       29       30       34 </v>
    <v type="int" >        2       10       29       33       34 </v>
    <v type="int" >        2       11       14       15       30 </v>
    <v type="int" >        2       10       11       14       30 </v>
    <v type="int" >        2       10       11       30       34 </v>
    <v type="int" >        2       11       15       30       31 </v>
    <v type="int" >        2       11       30       31       35 </v>
    <v type="int" >        2       11       30       34       35 </v>
    <v type="int" >        2       12       15       16       31 </v>
    <v type="int" >        2       11       12       15       31 </v>
    <v type="int" >        2       11       12       31       35 </v>
    <v type="int" >        2       12       16       31       32 </v>
    <v type="int" >        2       12       31       32       36 </v>
    <v type="int" >        2       12       31       35       36 </v>
    <v type="int" >        2       11       15       16       32 </v>
    <v type="int" >        2       11       12       16       32 </v>
    <v type="int" >        2       11       12       32       36 </v>
    <v type="int" >        2       11       15       31       32 </v>
    <v type="int" >        2       11       31       32       35 </v>
    <v type="int" >        2       11       32       35       36 </v>
    <v type="int" >        2       10       14       15       31 </v>
    <v type="int" >        2       10       11       15       31 </v>
    <v type="int" >        2       10       11       31       35 </v>
    <v type="int" >        2       10       14       30       31 </v>
    <v type="int" >        2       10       30       31       34 </v>
    <v type="int" >        2       10       31       34       35 </v>
    <v type="int" >        2        9       13       14       30 </v>
    <v type="int" >        2        9       10       14       30 </v>
    <v type="int" >        2        9       10       30       34 </v>
    <v type="int" >        2        9       13       29       30 </v>
    <v type="int" >        2        9       29       30       33 </v>
    <v type="int" >        2        9       30       33       34 </v>
    <v type="int" >        2        6        9       10       33 </v>
    <v type="int" >        2        5        6        9       33 </v>
    <v type="int" >        2        5        6       33       37 </v>
    <v type="int" >        2        6       10       33       34 </v>
    <v type="int" >        2        6       33       34       38 </v>
    <v type="int" >        2        6       33       37       38 </v>
    <v type="int" >        2        7       10       11       34 </v>
    <v type="int" >        2        6        7       10       34 </v>
    <v type="int" >        2        6        7       34       38 </v>
    <v type="int" >        2        7       11       34       35 </v>
    <v type="int" >        2        7       34       35       39 </v>
    <v type="int" >        2        7       34       38       39 </v>
    <v type="int" >        2        8       11       12       35 </v>
    <v type="int" >        2        7        8       11       35 </v>
    <v type="int" >        2        7        8       35       39 </v>
    <v type="int" >        2        8       12       35       36 </v>
    <v type="int" >        2        8       35       36       40 </v>
    <v type="int" >        2        8       35       39       40 </v>
    <v type="int" >        2        7       11       12       36 </v>
    <v type="int" >        2        7        8       12       36 </v>
    <v type="int" >        2        7        8       36       40 </v>
    <v type="int" >        2        7       11       35       36 </v>
    <v type="int" >        2        7       35       36       39 </v>
    <v type="int" >        2        7       36       39       40 </v>
    <v type="int" >        2        6       10       11       35 </v>
    <v type="int" >        2        6        7       11       35 </v>
    <v type="int" >        2        6        7       35       39 </v>
    <v type="int" >        2        6       10       34       35 </v>
    <v type="int" >        2        6       34       35       38 </v>
    <v type="int" >        2        6       35       38       39 </v>
    <v type="int" >        2        5        9       10       34 </v>
    <v type="int" >        2        5        6       10       34 </v>
    <v type="int" >        2        5        6       34       38 </v>
    <v type="int" >        2        5        9       33       34 </v>
    <v type="int" >        2        5       33       34       37 </v>
    <v type="int" >        2        5       34       37       38 </v>
    <v type="int" >        2        2        5        6       37 </v>
    <v type="int" >        2        1        2        5       37 </v>
    <v type="int" >        2        1        2       17       37 </v>
    <v type="int" >        2        2        6       37       38 </v>
    <v type="int" >        2        2       18       37       38 </v>
    <v type="int" >        2        2       17       18       37 </v>
    <v type="int" >        2        3        6        7       38 </v>
    <v type="int" >        2        2        3        6       38 </v>
    <v type="int" >        2        2        3       18       38 </v>
    <v type="int" >        2        3        7       38       39 </v>
    <v type="int" >        2        3       19       38       39 </v>
    <v type="int" >        2        3       18       19       38 </v>
    <v type="int" >        2        4        7        8       39 </v>
    <v type="int" >        2        3        4        7       39 </v>
    <v type="int" >        2        3        4       19       39 </v>
    <v type="int" >        2        4        8       39       40 </v>
    <v type="int" >        2        4       20       39       40 </v>
    <v type="int" >        2        4       19       20       39 </v>
    <v type="int" >        2        3        7        8       40 </v>
    <v type="int" >        2        3        4        8       40 </v>
    <v type="int" >        2        3        4       20       40 </v>
    <v type="int" >        2        3        7       39       40 </v>
    <v type="int" >        2        3       19       39       40 </v>
    <v type="int" >        2        3       19       20       40 </v>
    <v type="int" >        2        2        6        7       39 </v>
    <v type="int" >        2        2        3        7       39 </v>
    <v type="int" >        2        2        3       19       39 </v>
    <v type="int" >        2        2        6       38       39 </v>
    <v type="int" >        2        2       18       38       39 </v>
    <v type="int" >        2        2       18       19       39 </v>
    <v type="int" >        2        1        5        6       38 </v>
    <v type="int" >        2        1        2        6       38 </v>
    <v type="int" >        2        1        2       18       38 </v>
    <v type="int" >        2        1        5       37       38 </v>
    <v type="int" >        2        1       17       37       38 </v>
    <v type="int" >        2        1       17       18       38 </v>
    <v type="int" >        2       17       18       22       41 </v>
    <v type="int" >        2       17       21       22       41 </v>
    <v type="int" >        2       21       22       41       45 </v>
    <v type="int" >        2       18       22       41       42 </v>
    <v type="int" >        2       22       41       42       46 </v>
    <v type="int" >        2       22       41       45       46 </v>
    <v type="int" >        2       18       19       23       42 </v>
    <v type="int" >        2       18       22       23       42 </v>
    <v type="int" >        2       22       23       42       46 </v>
[...]
       <r>   11.2971    0.0000 </r>
       <r>   11.8106    0.0000 </r>
      </set>
      <set comment="kpoint 39">
       <r>  -21.2056    1.0000 </r>
       <r>  -21.2056    1.0000 </r>
       <r>  -18.1879    1.0000 </r>
       <r>  -18.1879    1.0000 </r>
       <r>  -16.8239    1.0000 </r>
       <r>  -16.8239    1.0000 </r>
       <r>  -10.2381    1.0000 </r>
       <r>  -10.2381    1.0000 </r>
       <r>   -8.7681    1.0000 </r>
       <r>   -8.7681    1.0000 </r>
       <r>   -8.0182    1.0000 </r>
       <r>   -8.0182    1.0000 </r>
       <r>   -7.0259    1.0000 </r>
       <r>   -7.0259    1.0000 </r>
       <r>   -6.0899    1.0000 </r>
       <r>   -6.0899    1.0000 </r>
       <r>   -5.4763    1.0000 </r>
       <r>   -5.4763    1.0000 </r>
       <r>   -2.0025    1.0000 </r>
       <r>   -2.0025    1.0000 </r>
       <r>   -1.4914    1.0000 </r>
       <r>   -1.4914    1.0000 </r>
       <r>   -1.2161    1.0000 </r>
       <r>   -1.2161    1.0000 </r>
       <r>    4.9795    0.0000 </r>
       <r>    4.9795    0.0000 </r>
       <r>    6.8488    0.0000 </r>
       <r>    6.8488    0.0000 </r>
       <r>    7.6303    0.0000 </r>
       <r>    7.6303    0.0000 </r>
       <r>    8.0888    0.0000 </r>
       <r>    8.0888    0.0000 </r>
       <r>    8.7177    0.0000 </r>
       <r>    8.7177    0.0000 </r>
       <r>   10.2806    0.0000 </r>
       <r>   10.2806    0.0000 </r>
       <r>   10.9360    0.0000 </r>
       <r>   10.9360    0.0000 </r>
       <r>   11.6514    0.0000 </r>
       <r>   11.6514    0.0000 </r>
      </set>
      <set comment="kpoint 40">
       <r>  -21.2054    1.0000 </r>
       <r>  -21.2054    1.0000 </r>
       <r>  -18.1817    1.0000 </r>
       <r>  -18.1817    1.0000 </r>
       <r>  -16.8342    1.0000 </r>
       <r>  -16.8342    1.0000 </r>
       <r>  -10.2256    1.0000 </r>
       <r>  -10.2256    1.0000 </r>
       <r>   -8.7755    1.0000 </r>
       <r>   -8.7755    1.0000 </r>
       <r>   -7.9907    1.0000 </r>
       <r>   -7.9907    1.0000 </r>
       <r>   -7.0418    1.0000 </r>
       <r>   -7.0418    1.0000 </r>
       <r>   -6.1445    1.0000 </r>
       <r>   -6.1445    1.0000 </r>
       <r>   -5.4646    1.0000 </r>
       <r>   -5.4646    1.0000 </r>
       <r>   -1.9725    1.0000 </r>
       <r>   -1.9725    1.0000 </r>
       <r>   -1.4727    1.0000 </r>
       <r>   -1.4727    1.0000 </r>
       <r>   -1.2036    1.0000 </r>
       <r>   -1.2036    1.0000 </r>
       <r>    4.9679    0.0000 </r>
       <r>    4.9679    0.0000 </r>
       <r>    7.0880    0.0000 </r>
       <r>    7.0880    0.0000 </r>
       <r>    7.4359    0.0000 </r>
       <r>    7.4359    0.0000 </r>
       <r>    8.2153    0.0000 </r>
       <r>    8.2153    0.0000 </r>
       <r>    8.3582    0.0000 </r>
       <r>    8.3582    0.0000 </r>
       <r>   10.7099    0.0000 </r>
       <r>   10.7099    0.0000 </r>
       <r>   10.7234    0.0000 </r>
       <r>   10.7234    0.0000 </r>
       <r>   12.3398    0.0000 </r>
       <r>   12.3540    0.0000 </r>
      </set>
     </set>
    </set>
   </array>
  </eigenvalues>
  <separator name="orbital magnetization" >
   <v name="MAGDIPOLOUT">      0.00000000      0.00000000      0.00000000</v>
  </separator>
  <dos>
   <i name="efermi">     -0.91385830 </i>
   <total>
    <array>
     <dimension dim="1">gridpoints</dimension>
     <dimension dim="2">spin</dimension>
     <field>energy</field>
     <field>total</field>
     <field>integrated</field>
     <set>
      <set comment="spin 1">
       <r>   -23.1170     0.0000     0.0000 </r>
       <r>   -22.9931     0.0000     0.0000 </r>
       <r>   -22.8693     0.0000     0.0000 </r>
       <r>   -22.7454     0.0000     0.0000 </r>
       <r>   -22.6215     0.0000     0.0000 </r>
       <r>   -22.4977     0.0000     0.0000 </r>
       <r>   -22.3738     0.0000     0.0000 </r>
       <r>   -22.2499     0.0000     0.0000 </r>
       <r>   -22.1261     0.0000     0.0000 </r>
       <r>   -22.0022     0.0000     0.0000 </r>
       <r>   -21.8783     0.0000     0.0000 </r>
       <r>   -21.7545     0.0000     0.0000 </r>
       <r>   -21.6306     0.0000     0.0000 </r>
       <r>   -21.5067     0.0000     0.0000 </r>
       <r>   -21.3829     4.8853     0.1118 </r>
       <r>   -21.2590    23.4416     1.9283 </r>
       <r>   -21.1351     3.9696     3.9804 </r>
       <r>   -21.0113     0.0000     4.0000 </r>
       <r>   -20.8874     0.0000     4.0000 </r>
       <r>   -20.7635     0.0000     4.0000 </r>
       <r>   -20.6397     0.0000     4.0000 </r>
       <r>   -20.5158     0.0000     4.0000 </r>
       <r>   -20.3919     0.0000     4.0000 </r>
       <r>   -20.2681     0.0000     4.0000 </r>
       <r>   -20.1442     0.0000     4.0000 </r>
       <r>   -20.0203     0.0000     4.0000 </r>
       <r>   -19.8965     0.0000     4.0000 </r>
       <r>   -19.7726     0.0000     4.0000 </r>
       <r>   -19.6487     0.0000     4.0000 </r>
       <r>   -19.5249     0.0000     4.0000 </r>
       <r>   -19.4010     0.0000     4.0000 </r>
       <r>   -19.2771     0.0000     4.0000 </r>
       <r>   -19.1533     0.0000     4.0000 </r>
       <r>   -19.0294     0.0000     4.0000 </r>
       <r>   -18.9055     0.0000     4.0000 </r>
       <r>   -18.7817     0.0000     4.0000 </r>
       <r>   -18.6578     0.0000     4.0000 </r>
       <r>   -18.5339     0.0000     4.0000 </r>
       <r>   -18.4101     0.0000     4.0000 </r>
       <r>   -18.2862     3.1504     4.2230 </r>
       <r>   -18.1623     7.5485     4.8825 </r>
       <r>   -18.0385     8.7576     5.8963 </r>
       <r>   -17.9146    14.9316     7.2521 </r>
       <r>   -17.7907     0.0000     8.0000 </r>
       <r>   -17.6669     0.0000     8.0000 </r>
       <r>   -17.5430     0.0000     8.0000 </r>
       <r>   -17.4191     0.0000     8.0000 </r>
       <r>   -17.2953     0.0000     8.0000 </r>
       <r>   -17.1714     0.0000     8.0000 </r>
       <r>   -17.0475     0.0000     8.0000 </r>
       <r>   -16.9237     0.0000     8.0000 </r>
       <r>   -16.7998    39.8211    11.7922 </r>
       <r>   -16.6759     0.0000    12.0000 </r>
       <r>   -16.5521     0.0000    12.0000 </r>
       <r>   -16.4282     0.0000    12.0000 </r>
       <r>   -16.3043     0.0000    12.0000 </r>
       <r>   -16.1805     0.0000    12.0000 </r>
       <r>   -16.0566     0.0000    12.0000 </r>
       <r>   -15.9327     0.0000    12.0000 </r>
       <r>   -15.8089     0.0000    12.0000 </r>
       <r>   -15.6850     0.0000    12.0000 </r>
       <r>   -15.5611     0.0000    12.0000 </r>
       <r>   -15.4373     0.0000    12.0000 </r>
       <r>   -15.3134     0.0000    12.0000 </r>
       <r>   -15.1895     0.0000    12.0000 </r>
       <r>   -15.0657     0.0000    12.0000 </r>
       <r>   -14.9418     0.0000    12.0000 </r>
       <r>   -14.8179     0.0000    12.0000 </r>
       <r>   -14.6941     0.0000    12.0000 </r>
       <r>   -14.5702     0.0000    12.0000 </r>
       <r>   -14.4463     0.0000    12.0000 </r>
       <r>   -14.3225     0.0000    12.0000 </r>
       <r>   -14.1986     0.0000    12.0000 </r>
       <r>   -14.0747     0.0000    12.0000 </r>
       <r>   -13.9509     0.0000    12.0000 </r>
       <r>   -13.8270     0.0000    12.0000 </r>
       <r>   -13.7031     0.0000    12.0000 </r>
       <r>   -13.5793     0.0000    12.0000 </r>
       <r>   -13.4554     0.0000    12.0000 </r>
       <r>   -13.3315     0.0000    12.0000 </r>
       <r>   -13.2077     0.0000    12.0000 </r>
       <r>   -13.0838     0.0000    12.0000 </r>
       <r>   -12.9599     0.0000    12.0000 </r>
       <r>   -12.8361     0.0000    12.0000 </r>
       <r>   -12.7122     0.0000    12.0000 </r>
       <r>   -12.5883     0.0000    12.0000 </r>
       <r>   -12.4645     0.0000    12.0000 </r>
       <r>   -12.3406     0.0000    12.0000 </r>
       <r>   -12.2167     0.0000    12.0000 </r>
       <r>   -12.0929     0.0000    12.0000 </r>
       <r>   -11.9690     0.0000    12.0000 </r>
       <r>   -11.8451     0.0000    12.0000 </r>
       <r>   -11.7213     0.0000    12.0000 </r>
       <r>   -11.5974     0.0000    12.0000 </r>
       <r>   -11.4735     0.0000    12.0000 </r>
       <r>   -11.3497     0.0000    12.0000 </r>
       <r>   -11.2258     0.0000    12.0000 </r>
       <r>   -11.1019     0.0000    12.0000 </r>
       <r>   -10.9780     0.0000    12.0000 </r>
       <r>   -10.8542     0.1051    12.0006 </r>
       <r>   -10.7303     2.1752    12.1507 </r>
       <r>   -10.6064     4.9415    12.5543 </r>
       <r>   -10.4826     6.1597    13.2562 </r>
       <r>   -10.3587     8.8588    14.1787 </r>
       <r>   -10.2348    10.5262    15.2677 </r>
       <r>   -10.1110     3.1389    15.9598 </r>
       <r>    -9.9871     0.0000    16.0000 </r>
       <r>    -9.8632     0.0000    16.0000 </r>
       <r>    -9.7394     0.0000    16.0000 </r>
       <r>    -9.6155     0.0000    16.0000 </r>
       <r>    -9.4916     0.0000    16.0000 </r>
       <r>    -9.3678     0.4478    16.0113 </r>
       <r>    -9.2439     1.4827    16.1306 </r>
       <r>    -9.1200     1.8126    16.3319 </r>
       <r>    -8.9962     2.4534    16.5961 </r>
       <r>    -8.8723     3.7246    16.9629 </r>
       <r>    -8.7484    54.3055    18.1624 </r>
       <r>    -8.6246     2.9272    19.8640 </r>
       <r>    -8.5007    11.0864    20.4431 </r>
       <r>    -8.3768     4.7525    22.3748 </r>
       <r>    -8.2530     3.0217    22.7993 </r>
       <r>    -8.1291     6.9087    23.2171 </r>
       <r>    -8.0052     4.8597    23.7881 </r>
       <r>    -7.8814     0.4304    23.9925 </r>
       <r>    -7.7575     0.0000    24.0000 </r>
       <r>    -7.6336     0.0000    24.0000 </r>
       <r>    -7.5098     0.0000    24.0000 </r>
       <r>    -7.3859     0.0000    24.0000 </r>
       <r>    -7.2620     0.0000    24.0000 </r>
       <r>    -7.1382     0.0000    24.0000 </r>
       <r>    -7.0143    35.4173    24.7684 </r>
       <r>    -6.8904     7.1761    26.5239 </r>
       <r>    -6.7666     5.7580    27.2839 </r>
       <r>    -6.6427     2.7353    27.9413 </r>
       <r>    -6.5188     0.0000    28.0000 </r>
       <r>    -6.3950     0.0000    28.0000 </r>
       <r>    -6.2711     0.0000    28.0000 </r>
       <r>    -6.1472     2.6544    28.1455 </r>
       <r>    -6.0234     2.9485    28.4699 </r>
       <r>    -5.8995     4.8769    28.9274 </r>
       <r>    -5.7756     6.1452    29.6394 </r>
       <r>    -5.6518     6.6099    30.6390 </r>
       <r>    -5.5279    14.3190    31.7383 </r>
       <r>    -5.4040     6.5409    33.3847 </r>
       <r>    -5.2802     3.0178    33.9667 </r>
       <r>    -5.1563     3.0503    34.3400 </r>
       <r>    -5.0324     3.7199    34.7501 </r>
       <r>    -4.9086     4.2318    35.2614 </r>
       <r>    -4.7847     2.9188    35.7362 </r>
       <r>    -4.6608     0.9260    35.9623 </r>
       <r>    -4.5370     0.0000    36.0000 </r>
       <r>    -4.4131     0.0000    36.0000 </r>
       <r>    -4.2892     0.0000    36.0000 </r>
       <r>    -4.1654     0.0000    36.0000 </r>
       <r>    -4.0415     0.0000    36.0000 </r>
       <r>    -3.9176     0.0000    36.0000 </r>
       <r>    -3.7938     0.0000    36.0000 </r>
       <r>    -3.6699     0.0000    36.0000 </r>
       <r>    -3.5460     0.0000    36.0000 </r>
       <r>    -3.4222     0.0000    36.0000 </r>
       <r>    -3.2983     0.0000    36.0000 </r>
       <r>    -3.1744     0.0000    36.0000 </r>
       <r>    -3.0506     0.0000    36.0000 </r>
       <r>    -2.9267     0.0000    36.0000 </r>
       <r>    -2.8028     0.0000    36.0000 </r>
       <r>    -2.6790     0.0000    36.0000 </r>
       <r>    -2.5551     0.0000    36.0000 </r>
       <r>    -2.4312     0.0000    36.0000 </r>
       <r>    -2.3074     0.0000    36.0000 </r>
       <r>    -2.1835     8.1901    36.1813 </r>
       <r>    -2.0596    19.0443    37.6538 </r>
       <r>    -1.9358     5.5436    39.9704 </r>
       <r>    -1.8119     7.3301    40.4601 </r>
       <r>    -1.6880    15.4887    42.2893 </r>
       <r>    -1.5642     9.7970    43.5689 </r>
       <r>    -1.4403     9.2736    44.7716 </r>
       <r>    -1.3164     6.0088    45.4618 </r>
       <r>    -1.1926    10.1699    46.6172 </r>
       <r>    -1.0687     4.4129    47.7601 </r>
       <r>    -0.9448     0.0000    48.0000 </r>
       <r>    -0.8210     0.0000    48.0000 </r>
       <r>    -0.6971     0.0000    48.0000 </r>
       <r>    -0.5732     0.0000    48.0000 </r>
       <r>    -0.4494     0.0000    48.0000 </r>
       <r>    -0.3255     0.0000    48.0000 </r>
       <r>    -0.2016     0.0000    48.0000 </r>
       <r>    -0.0778     0.0000    48.0000 </r>
       <r>     0.0461     0.0000    48.0000 </r>
       <r>     0.1700     0.0000    48.0000 </r>
       <r>     0.2938     0.0000    48.0000 </r>
       <r>     0.4177     0.0000    48.0000 </r>
       <r>     0.5416     0.0000    48.0000 </r>
       <r>     0.6654     0.0000    48.0000 </r>
       <r>     0.7893     0.0000    48.0000 </r>
       <r>     0.9132     0.0000    48.0000 </r>
       <r>     1.0370     0.0000    48.0000 </r>
       <r>     1.1609     0.0000    48.0000 </r>
       <r>     1.2848     0.0000    48.0000 </r>
       <r>     1.4086     0.0000    48.0000 </r>
       <r>     1.5325     0.0000    48.0000 </r>
       <r>     1.6564     0.0000    48.0000 </r>
       <r>     1.7802     0.0000    48.0000 </r>
       <r>     1.9041     0.0000    48.0000 </r>
       <r>     2.0280     0.0000    48.0000 </r>
       <r>     2.1518     0.0000    48.0000 </r>
       <r>     2.2757     0.0000    48.0000 </r>
       <r>     2.3996     0.0000    48.0000 </r>
       <r>     2.5235     0.0000    48.0000 </r>
       <r>     2.6473     0.0000    48.0000 </r>
       <r>     2.7712     0.0000    48.0000 </r>
       <r>     2.8951     0.0000    48.0000 </r>
       <r>     3.0189     0.0000    48.0000 </r>
       <r>     3.1428     0.0000    48.0000 </r>
       <r>     3.2667     0.0000    48.0000 </r>
       <r>     3.3905     0.0000    48.0000 </r>
       <r>     3.5144     0.0000    48.0000 </r>
       <r>     3.6383     0.0000    48.0000 </r>
       <r>     3.7621     0.0000    48.0000 </r>
       <r>     3.8860     0.0000    48.0000 </r>
       <r>     4.0099     0.0000    48.0000 </r>
       <r>     4.1337     0.0000    48.0000 </r>
       <r>     4.2576     0.0446    48.0009 </r>
       <r>     4.3815     0.5486    48.0290 </r>
       <r>     4.5053     4.4253    48.2633 </r>
       <r>     4.6292     5.2149    48.9063 </r>
       <r>     4.7531     5.8579    49.5941 </r>
       <r>     4.8769     6.8121    50.3903 </r>
       <r>     5.0008    10.2906    51.3793 </r>
       <r>     5.1247     2.8683    52.1457 </r>
       <r>     5.2485     0.9678    52.3206 </r>
       <r>     5.3724     1.0368    52.4439 </r>
       <r>     5.4963     1.2560    52.5865 </r>
       <r>     5.6201     1.3582    52.7512 </r>
       <r>     5.7440     1.4162    52.9213 </r>
       <r>     5.8679     1.5382    53.1045 </r>
       <r>     5.9917     1.6158    53.3005 </r>
       <r>     6.1156     1.8289    53.5094 </r>
       <r>     6.2395     1.9185    53.7429 </r>
       <r>     6.3633     1.8935    53.9780 </r>
       <r>     6.4872     1.9562    54.2151 </r>
       <r>     6.6111     2.4500    54.4829 </r>
       <r>     6.7349     3.2261    54.8330 </r>
       <r>     6.8588     3.2287    55.2344 </r>
       <r>     6.9827     2.6417    55.6017 </r>
       <r>     7.1065     1.6996    55.8797 </r>
       <r>     7.2304     0.1495    55.9981 </r>
       <r>     7.3543     1.1229    56.0543 </r>
       <r>     7.4781     2.8936    56.3135 </r>
       <r>     7.6020    11.3322    56.9824 </r>
       <r>     7.7259     6.3798    58.1593 </r>
       <r>     7.8497     6.5039    58.9401 </r>
       <r>     7.9736     2.6319    59.5239 </r>
       <r>     8.0975     2.7933    59.8235 </r>
       <r>     8.2213     4.0229    60.2493 </r>
       <r>     8.3452     3.8815    60.7385 </r>
       <r>     8.4691     4.1605    61.2299 </r>
       <r>     8.5929     4.7284    61.7970 </r>
       <r>     8.7168     5.7616    62.4111 </r>
       <r>     8.8407     6.7166    63.2066 </r>
       <r>     8.9645     5.5512    63.9304 </r>
       <r>     9.0884     4.9821    64.5898 </r>
       <r>     9.2123     4.4979    65.1873 </r>
       <r>     9.3361     3.3675    65.6788 </r>
       <r>     9.4600     3.7431    66.1145 </r>
       <r>     9.5839     4.0527    66.6190 </r>
       <r>     9.7077     4.3046    67.1193 </r>
       <r>     9.8316     6.4691    67.8173 </r>
       <r>     9.9555     6.2736    68.6427 </r>
       <r>    10.0793     7.1116    69.4647 </r>
       <r>    10.2032     7.1149    70.3334 </r>
       <r>    10.3271     8.0173    71.2474 </r>
       <r>    10.4509     5.2046    72.1510 </r>
       <r>    10.5748     7.2481    72.8764 </r>
       <r>    10.6987     5.6497    73.7078 </r>
       <r>    10.8225     5.5759    74.3611 </r>
       <r>    10.9464     8.8006    75.2778 </r>
       <r>    11.0703     1.8682    75.8390 </r>
       <r>    11.1941     0.6203    75.9735 </r>
       <r>    11.3180     0.4982    76.0032 </r>
       <r>    11.4419     7.9237    76.4626 </r>
       <r>    11.5657     5.6805    77.4568 </r>
       <r>    11.6896     5.2701    78.1064 </r>
       <r>    11.8135     6.6382    78.8705 </r>
       <r>    11.9373     4.0755    79.5706 </r>
       <r>    12.0612     1.5707    79.9119 </r>
       <r>    12.1851     0.0635    79.9961 </r>
       <r>    12.3089     0.0090    79.9998 </r>
       <r>    12.4328     0.0000    80.0000 </r>
       <r>    12.5567     0.0000    80.0000 </r>
       <r>    12.6805     0.0000    80.0000 </r>
       <r>    12.8044     0.0000    80.0000 </r>
       <r>    12.9283     0.0000    80.0000 </r>
       <r>    13.0521     0.0000    80.0000 </r>
       <r>    13.1760     0.0000    80.0000 </r>
       <r>    13.2999     0.0000    80.0000 </r>
       <r>    13.4237     0.0000    80.0000 </r>
       <r>    13.5476     0.0000    80.0000 </r>
       <r>    13.6715     0.0000    80.0000 </r>
       <r>    13.7953     0.0000    80.0000 </r>
       <r>    13.9192     0.0000    80.0000 </r>
       <r>    14.0431     0.0000    80.0000 </r>
      </set>
     </set>
    </array>
   </total>
  </dos>
 </calculation>
 <structure name="finalpos" >
  <crystal>
   <varray name="basis" >
    <v>       5.51946626       0.00000000       0.00000000 </v>
    <v>       0.00000000       5.51946626       0.00000000 </v>
    <v>       0.00000000       0.00000000       4.64963585 </v>
   </varray>
   <i name="volume">    141.64886774 </i>
   <varray name="rec_basis" >
    <v>       0.18117694       0.00000000       0.00000000 </v>
    <v>       0.00000000       0.18117694       0.00000000 </v>
    <v>       0.00000000       0.00000000       0.21507061 </v>
   </varray>
  </crystal>
  <varray name="positions" >
   <v>       0.00000000       0.50000000       0.32659965 </v>
   <v>       0.50000000       0.00000000       0.67340035 </v>
   <v>       0.00000000       0.50000000       0.60180540 </v>
   <v>       0.50000000       0.00000000       0.39819460 </v>
   <v>       0.14763624       0.64763624       0.17656203 </v>
   <v>       0.64763624       0.85236376       0.82343797 </v>
   <v>       0.85236376       0.35236376       0.17656203 </v>
   <v>       0.35236376       0.14763624       0.82343797 </v>
   <v>       0.26242757       0.76242757       0.28193159 </v>
   <v>       0.76242757       0.73757243       0.71806841 </v>
   <v>       0.73757243       0.23757243       0.28193159 </v>
   <v>       0.23757243       0.26242757       0.71806841 </v>
   <v>       0.14537472       0.64537472       0.95729397 </v>
   <v>       0.64537472       0.85462528       0.04270603 </v>
   <v>       0.85462528       0.35462528       0.95729397 </v>
   <v>       0.35462528       0.14537472       0.04270603 </v>
  </varray>
 </structure>
</modeling>
