unknown system                          
           1
     5.519466    0.000000    0.000000
     0.000000    5.519466    0.000000
     0.000000    0.000000    4.649636
   C    O    N    H 
   2   2   4   8
Direct configuration=     1
   0.00000000  0.50000000  0.32659965
   0.50000000  0.00000000  0.67340035
   0.00000000  0.50000000  0.60180540
   0.50000000  0.00000000  0.39819460
   0.14763624  0.64763624  0.17656203
   0.64763624  0.85236376  0.82343797
   0.85236376  0.35236376  0.17656203
   0.35236376  0.14763624  0.82343797
   0.26242757  0.76242757  0.28193159
   0.76242757  0.73757243  0.71806841
   0.73757243  0.23757243  0.28193159
   0.23757243  0.26242757  0.71806841
   0.14537472  0.64537472  0.95729397
   0.64537472  0.85462528  0.04270603
   0.85462528  0.35462528  0.95729397
   0.35462528  0.14537472  0.04270603
