120  
5    

1    
  0.0059163718384140   0.0000000000000000   0.0080620434301498
  -0.1266194600    0.0002388700   -0.1527107800
   0.0075181500    0.0003907600   -0.0084089700
   0.0013913000   -0.0045796600   -0.0079802000
   0.0024549800    0.0041918900   -0.0073400600
  -0.0035429900   -0.0000004500    0.0105107800
   0.0021902300    0.0000009100    0.0023636700
   0.0006980100   -0.0016997600    0.0028969800
   0.0002536500    0.0016986800    0.0027354200
  -0.0106575200   -0.0149341700    0.0045469400
   0.0022112700    0.0011329800   -0.0002409800
  -0.0021394800   -0.0032100500   -0.0060447200
   0.0190156800    0.0100027200    0.0095039800
   0.0144168200   -0.0064023900    0.0101005200
  -0.0023898300    0.0022987600   -0.0046025000
  -0.0064905900    0.0112903800    0.0067680200
   0.0012578800   -0.0007046300   -0.0007711300
  -0.0008598300   -0.0016547600    0.0042416300
   0.0006962800    0.0000247800    0.0023180800
  -0.0021361500   -0.0003922200    0.0025965300
   0.0022449400    0.0021516600    0.0055976900
  -0.0005874600    0.0015468500    0.0044847400
   0.0004542900   -0.0000015800    0.0025048300
   0.0016754300   -0.0015017000    0.0053361300
  -0.0014045600   -0.0000414200    0.0032268000
   0.0002230100   -0.0003465800    0.0042534000
  -0.0002472300    0.0001644900    0.0039060100
  -0.0003920300    0.0003195400    0.0040567100
   0.0003626300   -0.0001515600    0.0033307500
  -0.0007613100   -0.0000710700    0.0047174100
   0.0009788400   -0.0000043900    0.0031354700
  -0.0000428300   -0.0001806200    0.0033975000
  -0.0000938900    0.0002596700    0.0033601200
  -0.0022011700   -0.0000758800    0.0026590500
   0.0025953600    0.0019376800    0.0053209700
  -0.0011507100   -0.0019591100    0.0044569700
   0.0006928900   -0.0000251000    0.0023219100
   0.0147129900   -0.0064809800   -0.0240825000
   0.0292995800    0.0154957700   -0.0128163800
  -0.0158269600   -0.0091589100   -0.0253226100
   0.0014994800    0.0000015600   -0.0067471400
  -0.0160902700   -0.0004969000    0.0469021200
   0.0032495400    0.0002440200    0.0005403200
   0.0009213600   -0.0027882500   -0.0005206600
   0.0012477500    0.0027071600   -0.0002797000
  -0.0084784600    0.0143410600    0.0053238200
   0.0012544700   -0.0007110300   -0.0007631100
   0.0165981700   -0.0061128000    0.0093473400
  -0.0026660800   -0.0009922100   -0.0023934000
  -0.0010863900    0.0042068100   -0.0051094300
  -0.0001735400   -0.0006015000    0.0000375300
   0.0053320400   -0.0003519500   -0.0028379600
  -0.0025597800   -0.0007577600   -0.0009671000
   0.0258799200   -0.0227531500    0.0316909200
  -0.0025456900   -0.0010663400    0.0028108500
   0.0047423600    0.0002837500    0.0064146000
  -0.0033819000   -0.0028937100    0.0027236700
   0.0044699400    0.0011468300   -0.0027206600
  -0.0022601600    0.0006223100   -0.0013984600
   0.0003913400    0.0004528300    0.0000056600
  -0.0020427200   -0.0034660000   -0.0040733800
  -0.0052925800    0.0045196600    0.0020978900
   0.0028442600   -0.0019679400    0.0063607100
   0.0262262100    0.0198644600    0.0319747800
  -0.0019594100    0.0011776200    0.0026419400
  -0.0030065200   -0.0018816200   -0.0080477200
  -0.0008434400    0.0006207700    0.0021214600
   0.0001409800   -0.0000828100   -0.0007586100
   0.0005534400    0.0004735800   -0.0003621300
  -0.0100482100   -0.0003864400    0.0038780100
   0.0170869900    0.0014890500    0.0145043200
  -0.0005289600   -0.0067749500    0.0023372100
   0.0000789400    0.0047526800    0.0028984400
  -0.0001540300    0.0003865400   -0.0018785200
   0.0002166000    0.0001999100   -0.0033203100
   0.0002622000    0.0006194500   -0.0023835500
  -0.0003734300    0.0005869700   -0.0023507700
   0.0008128800    0.0004939800   -0.0027811700
  -0.0011731300    0.0004808300   -0.0029175100
   0.0001422700    0.0009681300   -0.0024399000
   0.0001204200   -0.0001546600   -0.0020502600
   0.0000826700   -0.0001735000   -0.0027859800
  -0.0012499700   -0.0003551700   -0.0030203100
  -0.0001844200    0.0002435800   -0.0021154600
  -0.0002404300   -0.0006300400   -0.0022495000
  -0.0000544800    0.0001701200   -0.0034291500
  -0.0006782000   -0.0002709100   -0.0018011200
   0.0000007500   -0.0003894900   -0.0022209700
  -0.0007566100   -0.0004338700   -0.0024738500
   0.0007301100   -0.0005061900   -0.0026496800
  -0.0000536600   -0.0004052600   -0.0021850600
   0.0009692600    0.0001810400   -0.0033073600
  -0.0000249200   -0.0002368800   -0.0018482400
   0.0010894000   -0.0008662900   -0.0037252500
  -0.0001890200    0.0000429900   -0.0015515900
  -0.0000740500    0.0000014600   -0.0022735800
   0.0006814000    0.0000574900   -0.0023632200
   0.0135492000   -0.0024922400    0.0197231400
  -0.0082794300   -0.0003875400    0.0016537900
  -0.0001622500    0.0040046100    0.0025717500
  -0.0002019500   -0.0049579700    0.0028731200
   0.0000537100    0.0003464300   -0.0003637500
  -0.0014818300   -0.0027679100   -0.0041393800
   0.0043542400    0.0009699100   -0.0036486300
  -0.0020518200    0.0008599800   -0.0012884300
   0.0120306500    0.0031753100    0.0155277000
  -0.0009687000    0.0004958900    0.0028038800
   0.0027558700    0.0013391800    0.0064800300
  -0.0031490700   -0.0029362100    0.0019234000
  -0.0042431700   -0.0000871900   -0.0083200400
   0.0005714600   -0.0002488500   -0.0003377800
   0.0003566300   -0.0005502800   -0.0005779500
  -0.0000405100   -0.0000368000   -0.0006807600
   0.0116876600   -0.0029984700    0.0124119800
  -0.0020305400   -0.0001731400    0.0034714100
  -0.0035510400    0.0033888400    0.0027661000
   0.0009283900   -0.0002856600    0.0058224100
   0.0048304000   -0.0013151400   -0.0053658500
  -0.0013584700   -0.0006679400   -0.0008638000
  -0.0011370300    0.0030278600   -0.0039691800
   0.0002826100   -0.0001010500   -0.0003111600

1    
 -0.0059163718384140   0.0000000000000000  -0.0080620434301498
   0.1259450500    0.0002330500    0.1538355000
  -0.0074944600   -0.0003872400    0.0081733400
  -0.0013925000    0.0045862700    0.0077589700
  -0.0024623600   -0.0041925700    0.0071206000
   0.0035004000   -0.0000023600   -0.0102114600
  -0.0021706400   -0.0000035200   -0.0021329600
  -0.0006984600    0.0017004400   -0.0026710200
  -0.0002544400   -0.0017005400   -0.0025092000
   0.0106666200    0.0149309900   -0.0043565100
  -0.0022054800   -0.0011407500    0.0004600800
   0.0021822300    0.0031623100    0.0062194900
  -0.0189127100   -0.0098200800   -0.0092371600
  -0.0143604200    0.0062670200   -0.0103102400
   0.0023980600   -0.0022668400    0.0043113000
   0.0065097100   -0.0112661400   -0.0070326000
  -0.0012535500    0.0007107200    0.0005284900
   0.0008654300    0.0016421400   -0.0044764100
  -0.0006945300   -0.0000272800   -0.0025554400
   0.0021228700    0.0003906800   -0.0028337700
  -0.0022296700   -0.0021109400   -0.0058092000
   0.0005843300   -0.0015534400   -0.0042453900
  -0.0004551500   -0.0000025300   -0.0022675700
  -0.0016787500    0.0015163800   -0.0051051100
   0.0014092800    0.0000377900   -0.0029831900
  -0.0002199000    0.0003418800   -0.0040150700
   0.0002448100   -0.0001649200   -0.0036750300
   0.0003908000   -0.0003095500   -0.0038223000
  -0.0003615100    0.0001544000   -0.0030983600
   0.0007595000    0.0000681800   -0.0049442000
  -0.0009768900    0.0000033300   -0.0033648200
   0.0000417700    0.0001785400   -0.0036285000
   0.0000940100   -0.0002627000   -0.0035906800
   0.0022056100    0.0000827400   -0.0028789800
  -0.0025994100   -0.0019546500   -0.0055563800
   0.0011476600    0.0019628000   -0.0046816700
  -0.0006962500    0.0000289000   -0.0025521700
  -0.0148067500    0.0064800400    0.0242092900
  -0.0294687600   -0.0156637500    0.0131803100
   0.0158618500    0.0090362900    0.0256270600
  -0.0014996900    0.0000004500    0.0069880900
   0.0163175400    0.0005081500   -0.0472646900
  -0.0032748500   -0.0002413100   -0.0003201900
  -0.0009185400    0.0027892900    0.0007535200
  -0.0012467900   -0.0027065200    0.0005138800
   0.0084783600   -0.0143681800   -0.0055746700
  -0.0012571800    0.0007048200    0.0005338700
  -0.0166467800    0.0062044800   -0.0096514500
   0.0026304400    0.0009459000    0.0021991800
   0.0011592400   -0.0042045400    0.0051370100
   0.0002434800    0.0006042800   -0.0000327700
  -0.0052335500    0.0003410600    0.0028422500
   0.0026138700    0.0007466200    0.0009641700
  -0.0247616700    0.0208093900   -0.0307269900
   0.0025107000    0.0010771800   -0.0028155000
  -0.0047421200   -0.0002576900   -0.0064197500
   0.0033884600    0.0028990000   -0.0027168100
  -0.0044795100   -0.0010702500    0.0027244000
   0.0022154000   -0.0005550300    0.0013969600
  -0.0004201300   -0.0003993800   -0.0000002900
   0.0020184000    0.0035104300    0.0041005900
   0.0053040800   -0.0045190900   -0.0020973400
  -0.0028642400    0.0019399700   -0.0063710600
  -0.0255612500   -0.0182054100   -0.0312042900
   0.0019249100   -0.0011811200   -0.0026445900
   0.0029403800    0.0018037900    0.0079921400
   0.0007997200   -0.0006743300   -0.0020920700
  -0.0001749200    0.0000242800    0.0007662700
  -0.0005879600   -0.0005297800    0.0003676100
   0.0100013500    0.0003904000   -0.0038485400
  -0.0167773300   -0.0014929300   -0.0145992600
   0.0005401700    0.0067920600   -0.0023400000
  -0.0000672500   -0.0047714600   -0.0028983700
   0.0001553800   -0.0003662700    0.0018731400
  -0.0002165100   -0.0001761300    0.0033160000
  -0.0002625000   -0.0006010500    0.0023799000
   0.0003754300   -0.0005680700    0.0023480300
  -0.0008078200   -0.0005132700    0.0027809900
   0.0011602400   -0.0004994900    0.0029084900
  -0.0001434700   -0.0009878100    0.0024462000
  -0.0001191900    0.0001326000    0.0020547200
  -0.0000998200    0.0001607500    0.0027804400
   0.0012400400    0.0003428200    0.0030242700
   0.0001708600   -0.0002568000    0.0021135200
   0.0002249900    0.0006190800    0.0022484300
   0.0000697300   -0.0001488500    0.0034212200
   0.0006908900    0.0002836500    0.0018033300
   0.0000161700    0.0003958100    0.0022192300
   0.0007695000    0.0004436600    0.0024757800
  -0.0007130300    0.0005003700    0.0026502700
   0.0000706000    0.0003980700    0.0021849800
  -0.0009511400   -0.0001937000    0.0033057700
   0.0000424500    0.0002274600    0.0018465100
  -0.0011024600    0.0008648200    0.0037130400
   0.0001694700   -0.0000356000    0.0015524300
   0.0000564900    0.0000103800    0.0022738900
  -0.0006971000   -0.0000439500    0.0023618000
  -0.0136800300    0.0024900400   -0.0196603500
   0.0083188000    0.0003750300   -0.0016666300
   0.0001635000   -0.0040200800   -0.0025784400
   0.0002041800    0.0049507200   -0.0028786800
  -0.0001237500   -0.0003475700    0.0003631700
   0.0014060400    0.0027575300    0.0041202000
  -0.0044447300   -0.0009651400    0.0036416600
   0.0019866700   -0.0008682900    0.0012949100
  -0.0127648400   -0.0021075700   -0.0168057500
   0.0010042800   -0.0004941200   -0.0027984400
  -0.0027462300   -0.0013446000   -0.0064821500
   0.0031650100    0.0029498600   -0.0019274100
   0.0042922100    0.0000249700    0.0083530600
  -0.0005254200    0.0001925000    0.0003153500
  -0.0003236200    0.0004940300    0.0005749300
   0.0000742300   -0.0000184600    0.0006772700
  -0.0123386400    0.0019382500   -0.0135882200
   0.0020368100    0.0001848600   -0.0034651400
   0.0035397400   -0.0033907100   -0.0027678700
  -0.0009452400    0.0003068000   -0.0058284900
  -0.0048153400    0.0013735000    0.0053691100
   0.0013947800    0.0007318000    0.0008639800
   0.0011621500   -0.0029626200    0.0039441100
  -0.0002499200    0.0001612200    0.0003070700

49   
 -0.0050000000000000   0.0086602540378444   0.0000000000000000
   0.0029175900   -0.0047300800    0.0029473400
  -0.0008992400   -0.0004379900    0.0000272800
   0.0001738600    0.0002070900   -0.0038812900
   0.0007181100    0.0011144200    0.0001461400
   0.0030880900   -0.0100414300   -0.0048127800
  -0.0009224300    0.0001311700   -0.0002088000
  -0.0273675200    0.0436546100   -0.0169426600
   0.0013647200    0.0007155700   -0.0004769100
  -0.0078050000    0.0200276500    0.0001140700
   0.0039101100    0.0033726000   -0.0025549300
   0.0028491800   -0.0055447700   -0.0032156300
  -0.0025351900   -0.0039230300    0.0024803900
  -0.0032998100    0.0323887300   -0.0105741800
   0.0086141800    0.0003104900    0.0034978600
   0.0035122100   -0.0058716500   -0.0027271700
  -0.0071454600   -0.0018015400   -0.0021403300
  -0.0122032200    0.0199392900   -0.0022075500
   0.0051993900    0.0033721100    0.0007910500
   0.0028248300   -0.0059987500    0.0022014100
  -0.0027631000   -0.0035253000   -0.0032962500
  -0.0005219400    0.0011739100    0.0005391400
   0.0005525200    0.0003359800    0.0009602900
   0.0005467200   -0.0009183000    0.0006775800
  -0.0005000800   -0.0006318600    0.0002551100
  -0.0050906100    0.0044719600   -0.0007120800
   0.0018788200    0.0002542500   -0.0009187200
   0.0020318200   -0.0020596400    0.0008305100
  -0.0028745000   -0.0029355900    0.0018296800
   0.0014112200   -0.0025530600   -0.0029396800
  -0.0004013700   -0.0001361700    0.0000127800
   0.0010013300   -0.0006778600    0.0043760100
   0.0002374200    0.0005708300   -0.0002642900
  -0.0005358800    0.0008412400    0.0003410600
   0.0005607100    0.0000662800   -0.0000302500
   0.0004228400   -0.0006738300    0.0004219700
  -0.0004802400   -0.0001982600    0.0007257200
  -0.0054777700    0.0025818900    0.0024407500
   0.0016716400   -0.0000132900    0.0010719900
   0.0010419000   -0.0013799900   -0.0003259200
  -0.0011925100   -0.0010512700   -0.0010901200
   0.0004074900   -0.0004361900    0.0012318900
  -0.0001158900   -0.0000470000    0.0004175400
  -0.0001746900    0.0003984300    0.0003193700
  -0.0000012500    0.0001365100    0.0004228500
  -0.0001832300    0.0012054800    0.0007881000
   0.0003535300    0.0002843600   -0.0000588500
   0.0004430000   -0.0006985400    0.0001251500
  -0.0006754500   -0.0008652700    0.0005238500
   0.0907579900   -0.1611534700    0.0511711900
  -0.0034656400   -0.0020363800    0.0004996600
  -0.0026950600    0.0042641700   -0.0001404500
   0.0027322500    0.0011329700    0.0001678000
  -0.0010427800    0.0091342000   -0.0198189300
  -0.0010197100   -0.0002410500    0.0001726800
  -0.0012796800    0.0013387600    0.0016111900
   0.0008889200    0.0003445800   -0.0001975900
  -0.0351273900    0.0150743000   -0.0016170400
  -0.0002382700   -0.0043299000    0.0002529600
  -0.0002176200    0.0166636500    0.0003653300
  -0.0010567200    0.0037850600    0.0003822800
  -0.0012900700   -0.0042064300    0.0066385900
  -0.0020098200   -0.0020352000   -0.0019792000
  -0.0008877700    0.0024443000   -0.0006023300
   0.0008372800    0.0015324600    0.0013185900
   0.0038796300    0.0152060600    0.0002812500
  -0.0027477700    0.0044532500    0.0006838900
  -0.0143314300    0.0045252300    0.0012622900
   0.0045354100   -0.0053622300    0.0002583300
   0.0027659500    0.0001816300   -0.0011931000
  -0.0017430300    0.0017924400   -0.0011679000
  -0.0016688300    0.0003718000    0.0014245100
   0.0042876000    0.0017295500    0.0070768900
  -0.0000559000   -0.0008639300   -0.0007289100
  -0.0007989200   -0.0004365100    0.0010553900
  -0.0000429700    0.0005496100   -0.0001575000
  -0.0001090800    0.0011612700   -0.0018025300
  -0.0017629500    0.0018511400    0.0013125700
   0.0018378000   -0.0004827300    0.0008566300
   0.0058949600    0.0051142400   -0.0125709600
  -0.0019854200    0.0003055700   -0.0006897700
   0.0010318900    0.0004146300    0.0013505600
  -0.0005362500    0.0002670300   -0.0001001600
  -0.0008109700    0.0003731000   -0.0013300300
   0.0010302600   -0.0003559100   -0.0009241700
  -0.0012557700    0.0056678500    0.0134019000
  -0.0008763200   -0.0004046300   -0.0000523300
  -0.0019978400    0.0024712500   -0.0021780400
   0.0008593400    0.0003248700    0.0004664500
   0.0008977600   -0.0016174800   -0.0010737700
  -0.0004787400   -0.0002557000   -0.0000277900
  -0.0004854000    0.0009538900    0.0000964200
   0.0005260900    0.0003249100   -0.0002486400
  -0.0007062100    0.0024093300    0.0012862800
   0.0007840300    0.0018071500   -0.0006258000
  -0.0042742500   -0.0032162000   -0.0088920400
  -0.0011378700   -0.0020572600    0.0014723600
   0.0007299200    0.0016253000   -0.0024496100
  -0.0004808700    0.0002799000   -0.0002366000
  -0.0001087800   -0.0000507800    0.0005114700
   0.0006381300   -0.0004835200    0.0002248800
   0.0000479100   -0.0001350200   -0.0003139000
  -0.0001105200   -0.0003923800   -0.0002050500
  -0.0001205200    0.0004620800   -0.0004401200
   0.0000403900    0.0003690500   -0.0003844700
  -0.0005226800    0.0008707400   -0.0002942400
   0.0004621400    0.0003114700   -0.0000257300
   0.0008237000   -0.0014964800   -0.0004027000
  -0.0005225600   -0.0002898100   -0.0003909500
  -0.0002815200    0.0002639000   -0.0002931800
   0.0004452300   -0.0000729800   -0.0002208500
   0.0000701800   -0.0003432500   -0.0004141100
  -0.0002812500   -0.0000670300   -0.0003202500
  -0.0008887900   -0.0001758500   -0.0016948500
   0.0000678800   -0.0006813500    0.0000806600
  -0.0002244300    0.0002137100    0.0006643600
   0.0000227400    0.0004817000   -0.0000207700
   0.0002642200   -0.0004498000   -0.0005174600
  -0.0000877100   -0.0000190800   -0.0002163400
  -0.0001596800    0.0003140000   -0.0002437000
   0.0001992500    0.0001460800   -0.0002819600

49   
  0.0050000000000000  -0.0086602540378444   0.0000000000000000
  -0.0029330200    0.0047504700   -0.0031867900
   0.0009061400    0.0004422500   -0.0002626200
  -0.0001515100   -0.0002295300    0.0036526200
  -0.0007297900   -0.0011144800   -0.0003849800
  -0.0030934400    0.0100409700    0.0050230900
   0.0009415600   -0.0001093500    0.0004486300
   0.0296111800   -0.0468770200    0.0194903800
  -0.0014204400   -0.0007103000    0.0007345800
   0.0074567500   -0.0200693700   -0.0002182600
  -0.0039039300   -0.0034133100    0.0028241900
  -0.0028558300    0.0055688800    0.0034934000
   0.0025263400    0.0039189400   -0.0022235800
   0.0038277000   -0.0321509500    0.0100258900
  -0.0086152800   -0.0002946400   -0.0037074300
  -0.0035378600    0.0058968500    0.0025209100
   0.0072121200    0.0017526200    0.0019310500
   0.0119604800   -0.0200756000    0.0022931700
  -0.0052129500   -0.0034100200   -0.0010437100
  -0.0028324800    0.0060252500   -0.0024708500
   0.0027548800    0.0035198200    0.0030451500
   0.0005225100   -0.0011745600   -0.0003032700
  -0.0005533700   -0.0003380200   -0.0007268600
  -0.0005446400    0.0009170500   -0.0004444700
   0.0004998800    0.0006317900   -0.0000193000
   0.0051052700   -0.0044735700    0.0009614000
  -0.0018793100   -0.0002460500    0.0011485700
  -0.0020424800    0.0020629800   -0.0006069900
   0.0028753800    0.0029243600   -0.0015931000
  -0.0014187000    0.0025624200    0.0027097000
   0.0004040700    0.0001363600   -0.0002512900
  -0.0009893900    0.0006724500   -0.0046209500
  -0.0002445900   -0.0005732300    0.0000295800
   0.0005371000   -0.0008408400   -0.0005795600
  -0.0005619400   -0.0000643700   -0.0002074000
  -0.0004237000    0.0006744500   -0.0006616200
   0.0004805900    0.0001975400   -0.0009635500
   0.0054838600   -0.0025713000   -0.0022250800
  -0.0016730100    0.0000183500   -0.0008347900
  -0.0010453600    0.0013790300    0.0005710200
   0.0011848800    0.0010311500    0.0013110500
  -0.0004077900    0.0004397700   -0.0010006700
   0.0001189700    0.0000483000   -0.0001862600
   0.0001786300   -0.0003991500   -0.0000909200
   0.0000001800   -0.0001363200   -0.0001917600
   0.0001804800   -0.0012060200   -0.0010317000
  -0.0003523000   -0.0002867600   -0.0001819000
  -0.0004414300    0.0006943900   -0.0003633600
   0.0006749200    0.0008657200   -0.0007640100
  -0.0926132000    0.1640214800   -0.0532807300
   0.0035375700    0.0020419700   -0.0005056900
   0.0027715900   -0.0042713100    0.0001373400
  -0.0026706200   -0.0011222400   -0.0001755900
   0.0010767500   -0.0091428800    0.0196882800
   0.0010198000    0.0002519900   -0.0001719200
   0.0012855800   -0.0013207100   -0.0016274300
  -0.0008761300   -0.0003216300    0.0002066200
   0.0344904100   -0.0147954100    0.0016130400
   0.0001429000    0.0043832900   -0.0002613400
   0.0001639400   -0.0168815300   -0.0003669400
   0.0010480000   -0.0037186900   -0.0003846400
   0.0012363400    0.0042447000   -0.0066340500
   0.0020060900    0.0020231600    0.0019808500
   0.0008760800   -0.0024522800    0.0005980400
  -0.0008647000   -0.0015282600   -0.0013330500
  -0.0038576400   -0.0150853300   -0.0002853100
   0.0026985900   -0.0045253400   -0.0006884300
   0.0145283600   -0.0046365300   -0.0012703600
  -0.0044028600    0.0054327000   -0.0002853200
  -0.0027578900   -0.0002046600    0.0011957500
   0.0017587600   -0.0018129100    0.0011551100
   0.0016895900   -0.0003831800   -0.0014391200
  -0.0042950500   -0.0016695200   -0.0070441200
   0.0000503500    0.0008865700    0.0007304100
   0.0007938900    0.0004551800   -0.0010585500
   0.0000399800   -0.0005301300    0.0001577200
   0.0001019100   -0.0011386900    0.0018016800
   0.0017757700   -0.0018777100   -0.0012996600
  -0.0018342500    0.0004588000   -0.0008538400
  -0.0059470900   -0.0051016700    0.0126352000
   0.0020038000   -0.0003267800    0.0007018200
  -0.0010429200   -0.0004300200   -0.0013501900
   0.0005241000   -0.0002833700    0.0001026600
   0.0008007700   -0.0003852300    0.0013346000
  -0.0010445200    0.0003423600    0.0009253100
   0.0012711800   -0.0056514500   -0.0133260300
   0.0008875500    0.0004172500    0.0000520700
   0.0020179500   -0.0024650200    0.0022059000
  -0.0008427200   -0.0003041700   -0.0004728700
  -0.0008814800    0.0016149500    0.0010754400
   0.0004992300    0.0002536300    0.0000273000
   0.0005062400   -0.0009591300   -0.0000921900
  -0.0005099900   -0.0003276700    0.0002510500
   0.0006900800   -0.0024118400   -0.0012797000
  -0.0008102900   -0.0018068500    0.0006385200
   0.0042633300    0.0032693500    0.0089520600
   0.0011293500    0.0020532700   -0.0014792500
  -0.0007344400   -0.0016422900    0.0024488100
   0.0004763300   -0.0002951100    0.0002332500
   0.0001011200    0.0000426100   -0.0005133100
  -0.0006385600    0.0004687400   -0.0002236300
  -0.0001137800    0.0001326800    0.0003197600
   0.0000475200    0.0003874900    0.0002101700
   0.0000591500   -0.0004663200    0.0004443800
  -0.0001049100   -0.0003718200    0.0003889800
   0.0005406500   -0.0008719900    0.0002902600
  -0.0004470800   -0.0003079300    0.0000237300
  -0.0008048200    0.0014976400    0.0004091900
   0.0005411900    0.0002928400    0.0003914600
   0.0003152300   -0.0003179500    0.0002961300
  -0.0004139000    0.0000194000    0.0002233500
  -0.0000370100    0.0002897200    0.0004179300
   0.0003159200    0.0000121900    0.0003228500
   0.0008803000    0.0001878700    0.0016979000
  -0.0000813400    0.0006914900   -0.0000797600
   0.0002078600   -0.0001937400   -0.0006599600
  -0.0000309900   -0.0004687000    0.0000186500
  -0.0002309600    0.0005042000    0.0005215200
   0.0001176200    0.0000738300    0.0002179500
   0.0001895900   -0.0002590000    0.0002481200
  -0.0001684900   -0.0000917800    0.0002844900

49   
  0.0000000000000000   0.0000000000000000   0.0100000000000000
  -0.0046458300    0.0060318400   -0.0030566000
   0.0012546700    0.0006207200   -0.0010028600
   0.0028433800   -0.0051581100   -0.0057325300
  -0.0008816800   -0.0003581400   -0.0006737400
   0.0014683600   -0.0024369300    0.0070239600
  -0.0000522300    0.0002608700    0.0035515600
   0.0094159500   -0.0170621800    0.0322354400
   0.0006649800    0.0002345500    0.0031337300
  -0.0062937900   -0.0030574600    0.0198583200
   0.0050649500   -0.0006369600    0.0058570800
  -0.0001008700   -0.0000357200    0.0035924700
   0.0001404700    0.0015067900    0.0033944100
  -0.0089281000   -0.0161998300    0.0317200800
  -0.0006777300    0.0002330300    0.0028598700
   0.0000593000    0.0002338900    0.0032799100
  -0.0014692600   -0.0024488200    0.0067410000
   0.0052146400   -0.0031200000    0.0205392500
  -0.0050611900   -0.0006408500    0.0056925100
  -0.0001354200    0.0015051400    0.0031937500
   0.0001052800   -0.0000298800    0.0033883900
   0.0008939400   -0.0002885400   -0.0039860400
  -0.0007023700   -0.0001392900   -0.0029803700
  -0.0004849800    0.0009023500   -0.0025548200
  -0.0000162000   -0.0004621100   -0.0024126500
  -0.0028605100   -0.0051786300   -0.0054979500
   0.0008888200   -0.0003584200   -0.0004251000
  -0.0012585700    0.0006223200   -0.0007551000
   0.0046689700    0.0060573700   -0.0028180400
   0.0022449900   -0.0035497500   -0.0035958600
  -0.0004602600   -0.0001811200   -0.0008981200
  -0.0036268500    0.0029018100   -0.0072991800
   0.0009601200    0.0002603600   -0.0010108800
  -0.0003102200   -0.0005121400   -0.0040066600
   0.0003097100   -0.0000681100   -0.0026688600
  -0.0003403700    0.0003928000   -0.0027808300
   0.0005136700    0.0003657400   -0.0034478800
   0.0036000800    0.0028913900   -0.0070440400
  -0.0009530900    0.0002602300   -0.0007874500
   0.0004594200   -0.0001815500   -0.0006756400
  -0.0022360200   -0.0035363200   -0.0033608600
  -0.0005091800    0.0003618700   -0.0032111900
   0.0003389800    0.0003922900   -0.0025485400
   0.0003074400   -0.0005090900   -0.0037714000
  -0.0003060900   -0.0000673000   -0.0024371300
  -0.0008891000   -0.0002870200   -0.0042185400
   0.0006974100   -0.0001390000   -0.0032168500
   0.0000158900   -0.0004596800   -0.0026528000
   0.0004828100    0.0008967000   -0.0027934600
   0.0005799800    0.0602847000   -0.1640932100
   0.0000261200    0.0005835600   -0.0020528900
   0.0003400400    0.0000223100   -0.0022004000
  -0.0002798800    0.0000205200   -0.0022019200
   0.0070916700   -0.0185195800    0.0210402600
  -0.0008630300   -0.0002958500   -0.0009026200
  -0.0007590600    0.0014336300   -0.0011135700
   0.0015054500    0.0006418100   -0.0012650600
   0.0016630000   -0.0012559600   -0.0081182900
  -0.0004312700   -0.0001195900   -0.0053273200
  -0.0002728700   -0.0012578500   -0.0053313400
  -0.0004008800   -0.0005456400   -0.0020329300
  -0.0132571600   -0.0004326000    0.0125980900
   0.0021765300    0.0001153200   -0.0006292900
   0.0000444300   -0.0016753500   -0.0009532700
  -0.0004760400    0.0016071400   -0.0011051700
   0.0002424900   -0.0013715500   -0.0053198300
   0.0003696300   -0.0005977900   -0.0020321600
   0.0003026700   -0.0001138900   -0.0053236700
  -0.0015634800   -0.0012373900   -0.0081568400
  -0.0019703800   -0.0028492900   -0.0006258700
   0.0013248700   -0.0007235100   -0.0011051700
  -0.0005955000    0.0003753000   -0.0009520200
   0.0065939400    0.0140286900    0.0126077500
   0.0008305400    0.0007532800    0.0020502400
  -0.0012495600   -0.0001140500    0.0020499600
   0.0000738600   -0.0002158000    0.0010113800
   0.0006477000   -0.0024503600    0.0039036400
  -0.0015085700    0.0006298300   -0.0012824100
   0.0007688500    0.0014189600   -0.0011306200
  -0.0072075800   -0.0188506800    0.0213876300
   0.0008732200   -0.0003130800   -0.0009203100
   0.0009218000    0.0014182300    0.0025570400
   0.0000947400   -0.0000457500    0.0009609800
   0.0013292900   -0.0008739600    0.0024805000
  -0.0013614700    0.0000057300    0.0025586800
  -0.0066783100    0.0142451000    0.0127736000
   0.0006053700    0.0003926900   -0.0009708200
   0.0019903400   -0.0028437700   -0.0006462600
  -0.0013251000   -0.0007081900   -0.0011214200
  -0.0003939800    0.0010089100    0.0039650000
  -0.0002828100    0.0001196300    0.0010889300
  -0.0000133600   -0.0001242200    0.0011932400
  -0.0003816700   -0.0001954700    0.0010899400
   0.0004615200    0.0016175800   -0.0011211700
  -0.0000604600   -0.0016898700   -0.0009693000
   0.0134700200   -0.0004418900    0.0127812900
  -0.0022084800    0.0001132800   -0.0006443400
  -0.0006465100   -0.0024536600    0.0038864900
  -0.0000798700   -0.0002344000    0.0010166100
  -0.0008329600    0.0007303800    0.0020509900
   0.0012355000   -0.0001322600    0.0020507000
  -0.0000298000   -0.0003673100    0.0024067100
  -0.0000324000   -0.0002433300    0.0020314900
   0.0000247200   -0.0004797300    0.0019653700
  -0.0000874000   -0.0004823300    0.0019672000
   0.0003996500   -0.0001940000    0.0010937000
   0.0000343900   -0.0001226700    0.0011975700
   0.0004169200    0.0010039600    0.0039569200
   0.0003008300    0.0001197600    0.0010952500
   0.0003377300    0.0000412200    0.0017410600
   0.0002386800    0.0001312500    0.0021736300
   0.0004316100    0.0003334000    0.0026162900
   0.0003124100    0.0001313600    0.0017405100
   0.0013397200    0.0000228900    0.0025542900
  -0.0013337500   -0.0008522600    0.0024771700
  -0.0009269700    0.0014288600    0.0025530200
  -0.0001064300   -0.0000267300    0.0009656700
  -0.0004010200    0.0003867600    0.0026164600
  -0.0002805500    0.0001837900    0.0017398000
  -0.0002071700    0.0001815900    0.0021739300
  -0.0003088600    0.0000911200    0.0017407700
