nqpoint: 1      
natom:   10     
reciprocal_lattice:
- [   0.20945802,   0.12093064,   0.07685592 ] # a*
- [  -0.20945802,   0.12093064,   0.07685592 ] # b*
- [   0.00000000,  -0.24186129,   0.07685592 ] # c*
phonon:
- q-position: [    0.0000000,    0.0000000,    0.0000000 ]
  dynamical_matrix:
  - [    0.7206878373,   -0.0000000000,    0.0000000000,    0.0000000000,    0.0000000000,    0.0000000000,   -0.1851075203,    0.0000000000,    0.0000000000,    0.0000000000,    0.0000000000,    0.0000000000,    0.0155278535,    0.0000000000,    0.0465458489,    0.0000000000,    0.0000000000,    0.0000000000,   -0.0850895211,    0.0000000000,   -0.0817237972,    0.0000000000,    0.0000000000,    0.0000000000,   -0.0543048320,    0.0000000000,   -0.0094975134,    0.0000000000,    0.0029040287,    0.0000000000,   -0.1213877602,    0.0000000000,    0.0900257397,    0.0000000000,   -0.0568962522,    0.0000000000,   -0.0749726709,    0.0000000000,    0.0058533246,    0.0000000000,   -0.0053770170,    0.0000000000,   -0.0832463769,    0.0000000000,   -0.0458669045,    0.0000000000,   -0.0513365822,    0.0000000000,   -0.0513445358,    0.0000000000,    0.0160767791,    0.0000000000,    0.0024729883,    0.0000000000,   -0.2200035506,    0.0000000000,   -0.0109519892,    0.0000000000,    0.1082328344,    0.0000000000 ]
  - [    0.0000000000,   -0.0000000000,    0.7206878373,   -0.0000000000,   -0.0000000000,    0.0000000000,    0.0000000000,    0.0000000000,   -0.1851075203,    0.0000000000,   -0.0000000000,    0.0000000000,   -0.0465458489,    0.0000000000,    0.0155278535,    0.0000000000,   -0.0000000000,    0.0000000000,    0.0817237972,    0.0000000000,   -0.0850895211,    0.0000000000,    0.0000000000,    0.0000000000,   -0.0177859070,    0.0000000000,   -0.0661098604,    0.0000000000,    0.0045322027,    0.0000000000,    0.0678878424,    0.0000000000,   -0.1617040316,    0.0000000000,    0.0921274456,    0.0000000000,   -0.0024350690,    0.0000000000,   -0.0454420215,    0.0000000000,    0.0002488612,    0.0000000000,   -0.0680048018,    0.0000000000,   -0.1998454149,    0.0000000000,   -0.0953373226,    0.0000000000,    0.0077883856,    0.0000000000,   -0.0690701566,    0.0000000000,   -0.0047810639,    0.0000000000,   -0.0330898865,    0.0000000000,   -0.0630882412,    0.0000000000,    0.0032098770,    0.0000000000 ]
  - [    0.0000000000,   -0.0000000000,   -0.0000000000,   -0.0000000000,    0.6722670253,   -0.0000000000,    0.0000000000,    0.0000000000,   -0.0000000000,    0.0000000000,    0.1673087734,    0.0000000000,   -0.0000000000,    0.0000000000,   -0.0000000000,    0.0000000000,   -0.3167352296,    0.0000000000,   -0.0000000000,    0.0000000000,   -0.0000000000,    0.0000000000,   -0.1796205008,    0.0000000000,    0.0024789839,    0.0000000000,    0.0043304784,    0.0000000000,   -0.0497765327,    0.0000000000,   -0.0607379481,    0.0000000000,    0.0786379246,    0.0000000000,   -0.0987969695,    0.0000000000,   -0.0049897962,    0.0000000000,   -0.0000183762,    0.0000000000,   -0.0497765327,    0.0000000000,   -0.0377334663,    0.0000000000,   -0.0919195683,    0.0000000000,   -0.0987969695,    0.0000000000,    0.0025108123,    0.0000000000,   -0.0043121022,    0.0000000000,   -0.0497765327,    0.0000000000,    0.0984714144,    0.0000000000,    0.0132816437,    0.0000000000,   -0.0987969695,    0.0000000000 ]
  - [   -0.1851075203,   -0.0000000000,    0.0000000000,   -0.0000000000,    0.0000000000,   -0.0000000000,    0.7206878373,   -0.0000000000,    0.0000000000,    0.0000000000,    0.0000000000,    0.0000000000,   -0.0850895211,    0.0000000000,   -0.0817237972,    0.0000000000,    0.0000000000,    0.0000000000,    0.0155278535,    0.0000000000,    0.0465458489,    0.0000000000,    0.0000000000,    0.0000000000,   -0.1213877602,    0.0000000000,    0.0900257397,    0.0000000000,   -0.0568962522,    0.0000000000,   -0.0543048320,    0.0000000000,   -0.0094975134,    0.0000000000,    0.0029040287,    0.0000000000,   -0.0832463769,    0.0000000000,   -0.0458669045,    0.0000000000,   -0.0513365822,    0.0000000000,   -0.0749726709,    0.0000000000,    0.0058533246,    0.0000000000,   -0.0053770170,    0.0000000000,   -0.2200035506,    0.0000000000,   -0.0109519892,    0.0000000000,    0.1082328344,    0.0000000000,   -0.0513445358,    0.0000000000,    0.0160767791,    0.0000000000,    0.0024729883,    0.0000000000 ]
  - [    0.0000000000,   -0.0000000000,   -0.1851075203,   -0.0000000000,   -0.0000000000,   -0.0000000000,    0.0000000000,   -0.0000000000,    0.7206878373,   -0.0000000000,   -0.0000000000,    0.0000000000,    0.0817237972,    0.0000000000,   -0.0850895211,    0.0000000000,    0.0000000000,    0.0000000000,   -0.0465458489,    0.0000000000,    0.0155278535,    0.0000000000,   -0.0000000000,    0.0000000000,    0.0678878424,    0.0000000000,   -0.1617040316,    0.0000000000,    0.0921274456,    0.0000000000,   -0.0177859070,    0.0000000000,   -0.0661098604,    0.0000000000,    0.0045322027,    0.0000000000,   -0.0680048018,    0.0000000000,   -0.1998454149,    0.0000000000,   -0.0953373226,    0.0000000000,   -0.0024350690,    0.0000000000,   -0.0454420215,    0.0000000000,    0.0002488612,    0.0000000000,   -0.0330898865,    0.0000000000,   -0.0630882412,    0.0000000000,    0.0032098770,    0.0000000000,    0.0077883856,    0.0000000000,   -0.0690701566,    0.0000000000,   -0.0047810639,    0.0000000000 ]
  - [    0.0000000000,   -0.0000000000,   -0.0000000000,   -0.0000000000,    0.1673087734,   -0.0000000000,    0.0000000000,   -0.0000000000,   -0.0000000000,   -0.0000000000,    0.6722670253,   -0.0000000000,    0.0000000000,    0.0000000000,   -0.0000000000,    0.0000000000,   -0.1796205008,    0.0000000000,    0.0000000000,    0.0000000000,   -0.0000000000,    0.0000000000,   -0.3167352296,    0.0000000000,   -0.0607379481,    0.0000000000,    0.0786379246,    0.0000000000,   -0.0987969695,    0.0000000000,    0.0024789839,    0.0000000000,    0.0043304784,    0.0000000000,   -0.0497765327,    0.0000000000,   -0.0377334663,    0.0000000000,   -0.0919195683,    0.0000000000,   -0.0987969695,    0.0000000000,   -0.0049897962,    0.0000000000,   -0.0000183762,    0.0000000000,   -0.0497765327,    0.0000000000,    0.0984714144,    0.0000000000,    0.0132816437,    0.0000000000,   -0.0987969695,    0.0000000000,    0.0025108123,    0.0000000000,   -0.0043121022,    0.0000000000,   -0.0497765327,    0.0000000000 ]
  - [    0.0155278535,   -0.0000000000,   -0.0465458489,   -0.0000000000,   -0.0000000000,   -0.0000000000,   -0.0850895211,   -0.0000000000,    0.0817237972,   -0.0000000000,    0.0000000000,   -0.0000000000,    0.7206878373,   -0.0000000000,   -0.0000000000,    0.0000000000,    0.0000000000,    0.0000000000,   -0.1851075203,    0.0000000000,    0.0000000000,    0.0000000000,    0.0000000000,    0.0000000000,   -0.0543048320,    0.0000000000,    0.0094975134,    0.0000000000,   -0.0029040287,    0.0000000000,   -0.1213877602,    0.0000000000,   -0.0900257397,    0.0000000000,    0.0568962522,    0.0000000000,   -0.0513445358,    0.0000000000,   -0.0160767791,    0.0000000000,   -0.0024729883,    0.0000000000,   -0.2200035506,    0.0000000000,    0.0109519892,    0.0000000000,   -0.1082328344,    0.0000000000,   -0.0749726709,    0.0000000000,   -0.0058533246,    0.0000000000,    0.0053770170,    0.0000000000,   -0.0832463769,    0.0000000000,    0.0458669045,    0.0000000000,    0.0513365822,    0.0000000000 ]
  - [    0.0465458489,   -0.0000000000,    0.0155278535,   -0.0000000000,   -0.0000000000,   -0.0000000000,   -0.0817237972,   -0.0000000000,   -0.0850895211,   -0.0000000000,   -0.0000000000,   -0.0000000000,   -0.0000000000,   -0.0000000000,    0.7206878373,   -0.0000000000,   -0.0000000000,    0.0000000000,    0.0000000000,    0.0000000000,   -0.1851075203,    0.0000000000,   -0.0000000000,    0.0000000000,    0.0177859070,    0.0000000000,   -0.0661098604,    0.0000000000,    0.0045322027,    0.0000000000,   -0.0678878424,    0.0000000000,   -0.1617040316,    0.0000000000,    0.0921274456,    0.0000000000,   -0.0077883856,    0.0000000000,   -0.0690701566,    0.0000000000,   -0.0047810639,    0.0000000000,    0.0330898865,    0.0000000000,   -0.0630882412,    0.0000000000,    0.0032098770,    0.0000000000,    0.0024350690,    0.0000000000,   -0.0454420215,    0.0000000000,    0.0002488612,    0.0000000000,    0.0680048018,    0.0000000000,   -0.1998454149,    0.0000000000,   -0.0953373226,    0.0000000000 ]
  - [    0.0000000000,   -0.0000000000,   -0.0000000000,   -0.0000000000,   -0.3167352296,   -0.0000000000,    0.0000000000,   -0.0000000000,    0.0000000000,   -0.0000000000,   -0.1796205008,   -0.0000000000,    0.0000000000,   -0.0000000000,   -0.0000000000,   -0.0000000000,    0.6722670253,   -0.0000000000,    0.0000000000,    0.0000000000,   -0.0000000000,    0.0000000000,    0.1673087734,    0.0000000000,   -0.0024789839,    0.0000000000,    0.0043304784,    0.0000000000,   -0.0497765327,    0.0000000000,    0.0607379481,    0.0000000000,    0.0786379246,    0.0000000000,   -0.0987969695,    0.0000000000,   -0.0025108123,    0.0000000000,   -0.0043121022,    0.0000000000,   -0.0497765327,    0.0000000000,   -0.0984714144,    0.0000000000,    0.0132816437,    0.0000000000,   -0.0987969695,    0.0000000000,    0.0049897962,    0.0000000000,   -0.0000183762,    0.0000000000,   -0.0497765327,    0.0000000000,    0.0377334663,    0.0000000000,   -0.0919195683,    0.0000000000,   -0.0987969695,    0.0000000000 ]
  - [   -0.0850895211,   -0.0000000000,    0.0817237972,   -0.0000000000,   -0.0000000000,   -0.0000000000,    0.0155278535,   -0.0000000000,   -0.0465458489,   -0.0000000000,    0.0000000000,   -0.0000000000,   -0.1851075203,   -0.0000000000,    0.0000000000,   -0.0000000000,    0.0000000000,   -0.0000000000,    0.7206878373,   -0.0000000000,   -0.0000000000,    0.0000000000,    0.0000000000,    0.0000000000,   -0.1213877602,    0.0000000000,   -0.0900257397,    0.0000000000,    0.0568962522,    0.0000000000,   -0.0543048320,    0.0000000000,    0.0094975134,    0.0000000000,   -0.0029040287,    0.0000000000,   -0.2200035506,    0.0000000000,    0.0109519892,    0.0000000000,   -0.1082328344,    0.0000000000,   -0.0513445358,    0.0000000000,   -0.0160767791,    0.0000000000,   -0.0024729883,    0.0000000000,   -0.0832463769,    0.0000000000,    0.0458669045,    0.0000000000,    0.0513365822,    0.0000000000,   -0.0749726709,    0.0000000000,   -0.0058533246,    0.0000000000,    0.0053770170,    0.0000000000 ]
  - [   -0.0817237972,   -0.0000000000,   -0.0850895211,   -0.0000000000,   -0.0000000000,   -0.0000000000,    0.0465458489,   -0.0000000000,    0.0155278535,   -0.0000000000,   -0.0000000000,   -0.0000000000,    0.0000000000,   -0.0000000000,   -0.1851075203,   -0.0000000000,   -0.0000000000,   -0.0000000000,   -0.0000000000,   -0.0000000000,    0.7206878373,   -0.0000000000,   -0.0000000000,    0.0000000000,   -0.0678878424,    0.0000000000,   -0.1617040316,    0.0000000000,    0.0921274456,    0.0000000000,    0.0177859070,    0.0000000000,   -0.0661098604,    0.0000000000,    0.0045322027,    0.0000000000,    0.0330898865,    0.0000000000,   -0.0630882412,    0.0000000000,    0.0032098770,    0.0000000000,   -0.0077883856,    0.0000000000,   -0.0690701566,    0.0000000000,   -0.0047810639,    0.0000000000,    0.0680048018,    0.0000000000,   -0.1998454149,    0.0000000000,   -0.0953373226,    0.0000000000,    0.0024350690,    0.0000000000,   -0.0454420215,    0.0000000000,    0.0002488612,    0.0000000000 ]
  - [    0.0000000000,   -0.0000000000,    0.0000000000,   -0.0000000000,   -0.1796205008,   -0.0000000000,    0.0000000000,   -0.0000000000,   -0.0000000000,   -0.0000000000,   -0.3167352296,   -0.0000000000,    0.0000000000,   -0.0000000000,   -0.0000000000,   -0.0000000000,    0.1673087734,   -0.0000000000,    0.0000000000,   -0.0000000000,   -0.0000000000,   -0.0000000000,    0.6722670253,   -0.0000000000,    0.0607379481,    0.0000000000,    0.0786379246,    0.0000000000,   -0.0987969695,    0.0000000000,   -0.0024789839,    0.0000000000,    0.0043304784,    0.0000000000,   -0.0497765327,    0.0000000000,   -0.0984714144,    0.0000000000,    0.0132816437,    0.0000000000,   -0.0987969695,    0.0000000000,   -0.0025108123,    0.0000000000,   -0.0043121022,    0.0000000000,   -0.0497765327,    0.0000000000,    0.0377334663,    0.0000000000,   -0.0919195683,    0.0000000000,   -0.0987969695,    0.0000000000,    0.0049897962,    0.0000000000,   -0.0000183762,    0.0000000000,   -0.0497765327,    0.0000000000 ]
  - [   -0.0543048320,   -0.0000000000,   -0.0177859070,   -0.0000000000,    0.0024789839,   -0.0000000000,   -0.1213877602,   -0.0000000000,    0.0678878424,   -0.0000000000,   -0.0607379481,   -0.0000000000,   -0.0543048320,   -0.0000000000,    0.0177859070,   -0.0000000000,   -0.0024789839,   -0.0000000000,   -0.1213877602,   -0.0000000000,   -0.0678878424,   -0.0000000000,    0.0607379481,   -0.0000000000,    1.0993234121,   -0.0000000000,    0.0000000000,    0.0000000000,    0.0000000000,    0.0000000000,    0.0187268898,    0.0000000000,    0.0000000000,    0.0000000000,    0.0000000000,    0.0000000000,   -0.2793209715,    0.0000000000,    0.0823924414,    0.0000000000,   -0.0187994194,    0.0000000000,   -0.0515366496,    0.0000000000,    0.0173056153,    0.0000000000,    0.1102763765,    0.0000000000,   -0.2793209715,    0.0000000000,   -0.0823924414,    0.0000000000,    0.0187994194,    0.0000000000,   -0.0515366496,    0.0000000000,   -0.0173056153,    0.0000000000,   -0.1102763765,    0.0000000000 ]
  - [   -0.0094975134,   -0.0000000000,   -0.0661098604,   -0.0000000000,    0.0043304784,   -0.0000000000,    0.0900257397,   -0.0000000000,   -0.1617040316,   -0.0000000000,    0.0786379246,   -0.0000000000,    0.0094975134,   -0.0000000000,   -0.0661098604,   -0.0000000000,    0.0043304784,   -0.0000000000,   -0.0900257397,   -0.0000000000,   -0.1617040316,   -0.0000000000,    0.0786379246,   -0.0000000000,    0.0000000000,   -0.0000000000,    1.1364416927,   -0.0000000000,   -0.3549638446,    0.0000000000,    0.0000000000,    0.0000000000,   -0.1276244545,    0.0000000000,    0.2213365851,    0.0000000000,    0.0934888209,    0.0000000000,   -0.1777758774,    0.0000000000,    0.0088184745,    0.0000000000,    0.0187313354,    0.0000000000,   -0.0307307064,    0.0000000000,   -0.0497341728,    0.0000000000,   -0.0934888209,    0.0000000000,   -0.1777758774,    0.0000000000,    0.0088184745,    0.0000000000,   -0.0187313354,    0.0000000000,   -0.0307307064,    0.0000000000,   -0.0497341728,    0.0000000000 ]
  - [    0.0029040287,   -0.0000000000,    0.0045322027,   -0.0000000000,   -0.0497765327,   -0.0000000000,   -0.0568962522,   -0.0000000000,    0.0921274456,   -0.0000000000,   -0.0987969695,   -0.0000000000,   -0.0029040287,   -0.0000000000,    0.0045322027,   -0.0000000000,   -0.0497765327,   -0.0000000000,    0.0568962522,   -0.0000000000,    0.0921274456,   -0.0000000000,   -0.0987969695,   -0.0000000000,    0.0000000000,   -0.0000000000,   -0.3549638446,   -0.0000000000,    0.9533383127,   -0.0000000000,   -0.0000000000,    0.0000000000,    0.2213365851,    0.0000000000,   -0.2761607935,    0.0000000000,   -0.0170367326,    0.0000000000,    0.0118715375,    0.0000000000,    0.0307964049,    0.0000000000,    0.0982092453,    0.0000000000,   -0.0706350571,    0.0000000000,   -0.1764412415,    0.0000000000,    0.0170367326,    0.0000000000,    0.0118715375,    0.0000000000,    0.0307964049,    0.0000000000,   -0.0982092453,    0.0000000000,   -0.0706350571,    0.0000000000,   -0.1764412415,    0.0000000000 ]
  - [   -0.1213877602,   -0.0000000000,    0.0678878424,   -0.0000000000,   -0.0607379481,   -0.0000000000,   -0.0543048320,   -0.0000000000,   -0.0177859070,   -0.0000000000,    0.0024789839,   -0.0000000000,   -0.1213877602,   -0.0000000000,   -0.0678878424,   -0.0000000000,    0.0607379481,   -0.0000000000,   -0.0543048320,   -0.0000000000,    0.0177859070,   -0.0000000000,   -0.0024789839,   -0.0000000000,    0.0187268898,   -0.0000000000,    0.0000000000,   -0.0000000000,   -0.0000000000,   -0.0000000000,    1.0993234121,   -0.0000000000,    0.0000000000,    0.0000000000,   -0.0000000000,    0.0000000000,   -0.0515366496,    0.0000000000,    0.0173056153,    0.0000000000,    0.1102763765,    0.0000000000,   -0.2793209715,    0.0000000000,    0.0823924414,    0.0000000000,   -0.0187994194,    0.0000000000,   -0.0515366496,    0.0000000000,   -0.0173056153,    0.0000000000,   -0.1102763765,    0.0000000000,   -0.2793209715,    0.0000000000,   -0.0823924414,    0.0000000000,    0.0187994194,    0.0000000000 ]
  - [    0.0900257397,   -0.0000000000,   -0.1617040316,   -0.0000000000,    0.0786379246,   -0.0000000000,   -0.0094975134,   -0.0000000000,   -0.0661098604,   -0.0000000000,    0.0043304784,   -0.0000000000,   -0.0900257397,   -0.0000000000,   -0.1617040316,   -0.0000000000,    0.0786379246,   -0.0000000000,    0.0094975134,   -0.0000000000,   -0.0661098604,   -0.0000000000,    0.0043304784,   -0.0000000000,    0.0000000000,   -0.0000000000,   -0.1276244545,   -0.0000000000,    0.2213365851,   -0.0000000000,    0.0000000000,   -0.0000000000,    1.1364416927,   -0.0000000000,   -0.3549638446,    0.0000000000,    0.0187313354,    0.0000000000,   -0.0307307064,    0.0000000000,   -0.0497341728,    0.0000000000,    0.0934888209,    0.0000000000,   -0.1777758774,    0.0000000000,    0.0088184745,    0.0000000000,   -0.0187313354,    0.0000000000,   -0.0307307064,    0.0000000000,   -0.0497341728,    0.0000000000,   -0.0934888209,    0.0000000000,   -0.1777758774,    0.0000000000,    0.0088184745,    0.0000000000 ]
  - [   -0.0568962522,   -0.0000000000,    0.0921274456,   -0.0000000000,   -0.0987969695,   -0.0000000000,    0.0029040287,   -0.0000000000,    0.0045322027,   -0.0000000000,   -0.0497765327,   -0.0000000000,    0.0568962522,   -0.0000000000,    0.0921274456,   -0.0000000000,   -0.0987969695,   -0.0000000000,   -0.0029040287,   -0.0000000000,    0.0045322027,   -0.0000000000,   -0.0497765327,   -0.0000000000,    0.0000000000,   -0.0000000000,    0.2213365851,   -0.0000000000,   -0.2761607935,   -0.0000000000,   -0.0000000000,   -0.0000000000,   -0.3549638446,   -0.0000000000,    0.9533383127,   -0.0000000000,    0.0982092453,    0.0000000000,   -0.0706350571,    0.0000000000,   -0.1764412415,    0.0000000000,   -0.0170367326,    0.0000000000,    0.0118715375,    0.0000000000,    0.0307964049,    0.0000000000,   -0.0982092453,    0.0000000000,   -0.0706350571,    0.0000000000,   -0.1764412415,    0.0000000000,    0.0170367326,    0.0000000000,    0.0118715375,    0.0000000000,    0.0307964049,    0.0000000000 ]
  - [   -0.0749726709,   -0.0000000000,   -0.0024350690,   -0.0000000000,   -0.0049897962,   -0.0000000000,   -0.0832463769,   -0.0000000000,   -0.0680048018,   -0.0000000000,   -0.0377334663,   -0.0000000000,   -0.0513445358,   -0.0000000000,   -0.0077883856,   -0.0000000000,   -0.0025108123,   -0.0000000000,   -0.2200035506,   -0.0000000000,    0.0330898865,   -0.0000000000,   -0.0984714144,   -0.0000000000,   -0.2793209715,   -0.0000000000,    0.0934888209,   -0.0000000000,   -0.0170367326,   -0.0000000000,   -0.0515366496,   -0.0000000000,    0.0187313354,   -0.0000000000,    0.0982092453,   -0.0000000000,    1.1271621225,   -0.0000000000,    0.0160726869,    0.0000000000,    0.3074077069,    0.0000000000,   -0.0910366184,    0.0000000000,   -0.0633719910,    0.0000000000,   -0.1916831055,    0.0000000000,   -0.1270033303,    0.0000000000,   -0.0055481898,    0.0000000000,    0.0017626867,    0.0000000000,   -0.0203277349,    0.0000000000,   -0.0007128601,    0.0000000000,   -0.0120671312,    0.0000000000 ]
  - [    0.0058533246,   -0.0000000000,   -0.0454420215,   -0.0000000000,   -0.0000183762,   -0.0000000000,   -0.0458669045,   -0.0000000000,   -0.1998454149,   -0.0000000000,   -0.0919195683,   -0.0000000000,   -0.0160767791,   -0.0000000000,   -0.0690701566,   -0.0000000000,   -0.0043121022,   -0.0000000000,    0.0109519892,   -0.0000000000,   -0.0630882412,   -0.0000000000,    0.0132816437,   -0.0000000000,    0.0823924414,   -0.0000000000,   -0.1777758774,   -0.0000000000,    0.0118715375,   -0.0000000000,    0.0173056153,   -0.0000000000,   -0.0307307064,   -0.0000000000,   -0.0706350571,   -0.0000000000,    0.0160726869,   -0.0000000000,    1.1086029823,   -0.0000000000,    0.1774819223,    0.0000000000,   -0.0633719910,    0.0000000000,   -0.0178609463,    0.0000000000,   -0.1106682925,    0.0000000000,    0.0055481898,    0.0000000000,   -0.3300935186,    0.0000000000,   -0.0206900120,    0.0000000000,    0.0007128601,    0.0000000000,   -0.0619396212,    0.0000000000,    0.1203692299,    0.0000000000 ]
  - [   -0.0053770170,   -0.0000000000,    0.0002488612,   -0.0000000000,   -0.0497765327,   -0.0000000000,   -0.0513365822,   -0.0000000000,   -0.0953373226,   -0.0000000000,   -0.0987969695,   -0.0000000000,   -0.0024729883,   -0.0000000000,   -0.0047810639,   -0.0000000000,   -0.0497765327,   -0.0000000000,   -0.1082328344,   -0.0000000000,    0.0032098770,   -0.0000000000,   -0.0987969695,   -0.0000000000,   -0.0187994194,   -0.0000000000,    0.0088184745,   -0.0000000000,    0.0307964049,   -0.0000000000,    0.1102763765,   -0.0000000000,   -0.0497341728,   -0.0000000000,   -0.1764412415,   -0.0000000000,    0.3074077069,   -0.0000000000,    0.1774819223,   -0.0000000000,    0.9533383127,   -0.0000000000,   -0.1916831055,    0.0000000000,   -0.1106682925,    0.0000000000,   -0.2761607935,    0.0000000000,   -0.0017626867,    0.0000000000,   -0.0206900120,    0.0000000000,    0.0307964049,    0.0000000000,    0.0120671312,    0.0000000000,    0.1203692299,    0.0000000000,   -0.1764412415,    0.0000000000 ]
  - [   -0.0832463769,   -0.0000000000,   -0.0680048018,   -0.0000000000,   -0.0377334663,   -0.0000000000,   -0.0749726709,   -0.0000000000,   -0.0024350690,   -0.0000000000,   -0.0049897962,   -0.0000000000,   -0.2200035506,   -0.0000000000,    0.0330898865,   -0.0000000000,   -0.0984714144,   -0.0000000000,   -0.0513445358,   -0.0000000000,   -0.0077883856,   -0.0000000000,   -0.0025108123,   -0.0000000000,   -0.0515366496,   -0.0000000000,    0.0187313354,   -0.0000000000,    0.0982092453,   -0.0000000000,   -0.2793209715,   -0.0000000000,    0.0934888209,   -0.0000000000,   -0.0170367326,   -0.0000000000,   -0.0910366184,   -0.0000000000,   -0.0633719910,   -0.0000000000,   -0.1916831055,   -0.0000000000,    1.1271621225,   -0.0000000000,    0.0160726869,    0.0000000000,    0.3074077069,    0.0000000000,   -0.0203277349,    0.0000000000,   -0.0007128601,    0.0000000000,   -0.0120671312,    0.0000000000,   -0.1270033303,    0.0000000000,   -0.0055481898,    0.0000000000,    0.0017626867,    0.0000000000 ]
  - [   -0.0458669045,   -0.0000000000,   -0.1998454149,   -0.0000000000,   -0.0919195683,   -0.0000000000,    0.0058533246,   -0.0000000000,   -0.0454420215,   -0.0000000000,   -0.0000183762,   -0.0000000000,    0.0109519892,   -0.0000000000,   -0.0630882412,   -0.0000000000,    0.0132816437,   -0.0000000000,   -0.0160767791,   -0.0000000000,   -0.0690701566,   -0.0000000000,   -0.0043121022,   -0.0000000000,    0.0173056153,   -0.0000000000,   -0.0307307064,   -0.0000000000,   -0.0706350571,   -0.0000000000,    0.0823924414,   -0.0000000000,   -0.1777758774,   -0.0000000000,    0.0118715375,   -0.0000000000,   -0.0633719910,   -0.0000000000,   -0.0178609463,   -0.0000000000,   -0.1106682925,   -0.0000000000,    0.0160726869,   -0.0000000000,    1.1086029823,   -0.0000000000,    0.1774819223,    0.0000000000,    0.0007128601,    0.0000000000,   -0.0619396212,    0.0000000000,    0.1203692299,    0.0000000000,    0.0055481898,    0.0000000000,   -0.3300935186,    0.0000000000,   -0.0206900120,    0.0000000000 ]
  - [   -0.0513365822,   -0.0000000000,   -0.0953373226,   -0.0000000000,   -0.0987969695,   -0.0000000000,   -0.0053770170,   -0.0000000000,    0.0002488612,   -0.0000000000,   -0.0497765327,   -0.0000000000,   -0.1082328344,   -0.0000000000,    0.0032098770,   -0.0000000000,   -0.0987969695,   -0.0000000000,   -0.0024729883,   -0.0000000000,   -0.0047810639,   -0.0000000000,   -0.0497765327,   -0.0000000000,    0.1102763765,   -0.0000000000,   -0.0497341728,   -0.0000000000,   -0.1764412415,   -0.0000000000,   -0.0187994194,   -0.0000000000,    0.0088184745,   -0.0000000000,    0.0307964049,   -0.0000000000,   -0.1916831055,   -0.0000000000,   -0.1106682925,   -0.0000000000,   -0.2761607935,   -0.0000000000,    0.3074077069,   -0.0000000000,    0.1774819223,   -0.0000000000,    0.9533383127,   -0.0000000000,    0.0120671312,    0.0000000000,    0.1203692299,    0.0000000000,   -0.1764412415,    0.0000000000,   -0.0017626867,    0.0000000000,   -0.0206900120,    0.0000000000,    0.0307964049,    0.0000000000 ]
  - [   -0.0513445358,   -0.0000000000,    0.0077883856,   -0.0000000000,    0.0025108123,   -0.0000000000,   -0.2200035506,   -0.0000000000,   -0.0330898865,   -0.0000000000,    0.0984714144,   -0.0000000000,   -0.0749726709,   -0.0000000000,    0.0024350690,   -0.0000000000,    0.0049897962,   -0.0000000000,   -0.0832463769,   -0.0000000000,    0.0680048018,   -0.0000000000,    0.0377334663,   -0.0000000000,   -0.2793209715,   -0.0000000000,   -0.0934888209,   -0.0000000000,    0.0170367326,   -0.0000000000,   -0.0515366496,   -0.0000000000,   -0.0187313354,   -0.0000000000,   -0.0982092453,   -0.0000000000,   -0.1270033303,   -0.0000000000,    0.0055481898,   -0.0000000000,   -0.0017626867,   -0.0000000000,   -0.0203277349,   -0.0000000000,    0.0007128601,   -0.0000000000,    0.0120671312,   -0.0000000000,    1.1271621225,   -0.0000000000,   -0.0160726869,    0.0000000000,   -0.3074077069,    0.0000000000,   -0.0910366184,    0.0000000000,    0.0633719910,    0.0000000000,    0.1916831055,    0.0000000000 ]
  - [    0.0160767791,   -0.0000000000,   -0.0690701566,   -0.0000000000,   -0.0043121022,   -0.0000000000,   -0.0109519892,   -0.0000000000,   -0.0630882412,   -0.0000000000,    0.0132816437,   -0.0000000000,   -0.0058533246,   -0.0000000000,   -0.0454420215,   -0.0000000000,   -0.0000183762,   -0.0000000000,    0.0458669045,   -0.0000000000,   -0.1998454149,   -0.0000000000,   -0.0919195683,   -0.0000000000,   -0.0823924414,   -0.0000000000,   -0.1777758774,   -0.0000000000,    0.0118715375,   -0.0000000000,   -0.0173056153,   -0.0000000000,   -0.0307307064,   -0.0000000000,   -0.0706350571,   -0.0000000000,   -0.0055481898,   -0.0000000000,   -0.3300935186,   -0.0000000000,   -0.0206900120,   -0.0000000000,   -0.0007128601,   -0.0000000000,   -0.0619396212,   -0.0000000000,    0.1203692299,   -0.0000000000,   -0.0160726869,   -0.0000000000,    1.1086029823,   -0.0000000000,    0.1774819223,    0.0000000000,    0.0633719910,    0.0000000000,   -0.0178609463,    0.0000000000,   -0.1106682925,    0.0000000000 ]
  - [    0.0024729883,   -0.0000000000,   -0.0047810639,   -0.0000000000,   -0.0497765327,   -0.0000000000,    0.1082328344,   -0.0000000000,    0.0032098770,   -0.0000000000,   -0.0987969695,   -0.0000000000,    0.0053770170,   -0.0000000000,    0.0002488612,   -0.0000000000,   -0.0497765327,   -0.0000000000,    0.0513365822,   -0.0000000000,   -0.0953373226,   -0.0000000000,   -0.0987969695,   -0.0000000000,    0.0187994194,   -0.0000000000,    0.0088184745,   -0.0000000000,    0.0307964049,   -0.0000000000,   -0.1102763765,   -0.0000000000,   -0.0497341728,   -0.0000000000,   -0.1764412415,   -0.0000000000,    0.0017626867,   -0.0000000000,   -0.0206900120,   -0.0000000000,    0.0307964049,   -0.0000000000,   -0.0120671312,   -0.0000000000,    0.1203692299,   -0.0000000000,   -0.1764412415,   -0.0000000000,   -0.3074077069,   -0.0000000000,    0.1774819223,   -0.0000000000,    0.9533383127,   -0.0000000000,    0.1916831055,    0.0000000000,   -0.1106682925,    0.0000000000,   -0.2761607935,    0.0000000000 ]
  - [   -0.2200035506,   -0.0000000000,   -0.0330898865,   -0.0000000000,    0.0984714144,   -0.0000000000,   -0.0513445358,   -0.0000000000,    0.0077883856,   -0.0000000000,    0.0025108123,   -0.0000000000,   -0.0832463769,   -0.0000000000,    0.0680048018,   -0.0000000000,    0.0377334663,   -0.0000000000,   -0.0749726709,   -0.0000000000,    0.0024350690,   -0.0000000000,    0.0049897962,   -0.0000000000,   -0.0515366496,   -0.0000000000,   -0.0187313354,   -0.0000000000,   -0.0982092453,   -0.0000000000,   -0.2793209715,   -0.0000000000,   -0.0934888209,   -0.0000000000,    0.0170367326,   -0.0000000000,   -0.0203277349,   -0.0000000000,    0.0007128601,   -0.0000000000,    0.0120671312,   -0.0000000000,   -0.1270033303,   -0.0000000000,    0.0055481898,   -0.0000000000,   -0.0017626867,   -0.0000000000,   -0.0910366184,   -0.0000000000,    0.0633719910,   -0.0000000000,    0.1916831055,   -0.0000000000,    1.1271621225,   -0.0000000000,   -0.0160726869,    0.0000000000,   -0.3074077069,    0.0000000000 ]