nqpoint: 3      
npath: 1      
segment_nqpoint:
- 3
reciprocal_lattice:
- [   0.21255036,   0.02683528,   0.05897508 ] # a*
- [  -0.00048497,   0.18373302,   0.04545868 ] # b*
- [   0.00058235,  -0.00031924,   0.17498998 ] # c*
natom: 12     
lattice:
- [     4.707048549438288,     0.016292802414033,    -0.015634996089066 ] # a
- [    -0.689936955420390,     5.437836052982735,     0.012216472975265 ] # b
- [    -1.407137471644865,    -1.418125295967534,     5.716708643814624 ] # c
points:
- symbol: Na # 1
  coordinates: [  0.041379903716209,  0.313303369937704,  0.212037204825537 ]
  mass: 22.989769
- symbol: Na # 2
  coordinates: [  0.958620096283791,  0.686696630062303,  0.787962795174463 ]
  mass: 22.989769
- symbol: S  # 3
  coordinates: [  0.611529804599711,  0.776843835664714,  0.242789897384048 ]
  mass: 32.065000
- symbol: S  # 4
  coordinates: [  0.388470195400289,  0.223156164335286,  0.757210102615952 ]
  mass: 32.065000
- symbol: O  # 5
  coordinates: [  0.580935064124921,  0.040444916902607,  0.416581793891826 ]
  mass: 15.999400
- symbol: O  # 6
  coordinates: [  0.419064935875072,  0.959555083097392,  0.583418206108175 ]
  mass: 15.999400
- symbol: O  # 7
  coordinates: [  0.774814853060195,  0.897773909679151,  0.106465405378478 ]
  mass: 15.999400
- symbol: O  # 8
  coordinates: [  0.225185146939805,  0.102226090320849,  0.893534594621522 ]
  mass: 15.999400
- symbol: O  # 9
  coordinates: [  0.310577406909895,  0.647886502230760,  0.119619457487953 ]
  mass: 15.999400
- symbol: O  # 10
  coordinates: [  0.689422593090105,  0.352113497769240,  0.880380542512047 ]
  mass: 15.999400
- symbol: O  # 11
  coordinates: [  0.774298295613356,  0.633529112700471,  0.390753964618193 ]
  mass: 15.999400
- symbol: O  # 12
  coordinates: [  0.225701704386644,  0.366470887299530,  0.609246035381807 ]
  mass: 15.999400
supercell_matrix:
- [    1,    0,    0 ]
- [    0,    1,    0 ]
- [    0,    0,    1 ]

phonon:
- q-position: [    0.0000000,    0.0000000,    0.0000000 ]
  distance:    0.0000000
  band:
  - # 1
    frequency:   -0.0351692084
    eigenvector:
    - # atom 1
      - [  0.26153673735716,  0.00000000000000 ]
      - [  0.04543780116937,  0.00000000000000 ]
      - [  0.16266645427510,  0.00000000000000 ]
    - # atom 2
      - [  0.26153673735714,  0.00000000000000 ]
      - [  0.04543780116936,  0.00000000000000 ]
      - [  0.16266645427508,  0.00000000000000 ]
    - # atom 3
      - [  0.30987042091350,  0.00000000000000 ]
      - [  0.05337421132113,  0.00000000000000 ]
      - [  0.18998631294560,  0.00000000000000 ]
    - # atom 4
      - [  0.30987042091350,  0.00000000000000 ]
      - [  0.05337421132113,  0.00000000000000 ]
      - [  0.18998631294560,  0.00000000000000 ]
    - # atom 5
      - [  0.21452683860173,  0.00000000000000 ]
      - [  0.03866155186173,  0.00000000000000 ]
      - [  0.13046811504957,  0.00000000000000 ]
    - # atom 6
      - [  0.21452683860173,  0.00000000000000 ]
      - [  0.03866155186173,  0.00000000000000 ]
      - [  0.13046811504957,  0.00000000000000 ]
    - # atom 7
      - [  0.21994587208095,  0.00000000000000 ]
      - [  0.03724119976681,  0.00000000000000 ]
      - [  0.13482554338366,  0.00000000000000 ]
    - # atom 8
      - [  0.21994587208094,  0.00000000000000 ]
      - [  0.03724119976680,  0.00000000000000 ]
      - [  0.13482554338366,  0.00000000000000 ]
    - # atom 9
      - [  0.22095982689262,  0.00000000000000 ]
      - [  0.03530487851150,  0.00000000000000 ]
      - [  0.13267886536093,  0.00000000000000 ]
    - # atom 10
      - [  0.22095982689263,  0.00000000000000 ]
      - [  0.03530487851149,  0.00000000000000 ]
      - [  0.13267886536094,  0.00000000000000 ]
    - # atom 11
      - [  0.21847181340217,  0.00000000000000 ]
      - [  0.03953970271308,  0.00000000000000 ]
      - [  0.13661687494243,  0.00000000000000 ]
    - # atom 12
      - [  0.21847181340217,  0.00000000000000 ]
      - [  0.03953970271308,  0.00000000000000 ]
      - [  0.13661687494244,  0.00000000000000 ]
  - # 2
    frequency:   -0.0125609021
    eigenvector:
    - # atom 1
      - [  0.06332763650052,  0.00000000000000 ]
      - [  0.24974798457545,  0.00000000000000 ]
      - [ -0.17440560123136,  0.00000000000000 ]
    - # atom 2
      - [  0.06332763650051,  0.00000000000000 ]
      - [  0.24974798457545,  0.00000000000000 ]
      - [ -0.17440560123137,  0.00000000000000 ]
    - # atom 3
      - [  0.07616785498798,  0.00000000000000 ]
      - [  0.29363061488060,  0.00000000000000 ]
      - [ -0.20643688112182,  0.00000000000000 ]
    - # atom 4
      - [  0.07616785498798,  0.00000000000000 ]
      - [  0.29363061488059,  0.00000000000000 ]
      - [ -0.20643688112181,  0.00000000000000 ]
    - # atom 5
      - [  0.05386543447435,  0.00000000000000 ]
      - [  0.20667962811488,  0.00000000000000 ]
      - [ -0.14512477658147,  0.00000000000000 ]
    - # atom 6
      - [  0.05386543447436,  0.00000000000000 ]
      - [  0.20667962811487,  0.00000000000000 ]
      - [ -0.14512477658146,  0.00000000000000 ]
    - # atom 7
      - [  0.05367277980380,  0.00000000000000 ]
      - [  0.20798822832781,  0.00000000000000 ]
      - [ -0.14538838791742,  0.00000000000000 ]
    - # atom 8
      - [  0.05367277980381,  0.00000000000000 ]
      - [  0.20798822832780,  0.00000000000000 ]
      - [ -0.14538838791741,  0.00000000000000 ]
    - # atom 9
      - [  0.05397287616026,  0.00000000000000 ]
      - [  0.20759970388536,  0.00000000000000 ]
      - [ -0.14623953282483,  0.00000000000000 ]
    - # atom 10
      - [  0.05397287616026,  0.00000000000000 ]
      - [  0.20759970388536,  0.00000000000000 ]
      - [ -0.14623953282482,  0.00000000000000 ]
    - # atom 11
      - [  0.05400624439493,  0.00000000000000 ]
      - [  0.20705896596225,  0.00000000000000 ]
      - [ -0.14634878701981,  0.00000000000000 ]
    - # atom 12
      - [  0.05400624439493,  0.00000000000000 ]
      - [  0.20705896596223,  0.00000000000000 ]
      - [ -0.14634878701981,  0.00000000000000 ]
  - # 3
    frequency:   -0.0092028961
    eigenvector:
    - # atom 1
      - [  0.15367374629698,  0.00000000000000 ]
      - [ -0.18123832604903,  0.00000000000000 ]
      - [ -0.20051432009503,  0.00000000000000 ]
    - # atom 2
      - [  0.15367374629696,  0.00000000000000 ]
      - [ -0.18123832604904,  0.00000000000000 ]
      - [ -0.20051432009504,  0.00000000000000 ]
    - # atom 3
      - [  0.18225450863999,  0.00000000000000 ]
      - [ -0.21310787592821,  0.00000000000000 ]
      - [ -0.23661871449736,  0.00000000000000 ]
    - # atom 4
      - [  0.18225450863999,  0.00000000000000 ]
      - [ -0.21310787592822,  0.00000000000000 ]
      - [ -0.23661871449736,  0.00000000000000 ]
    - # atom 5
      - [  0.12876399440842,  0.00000000000000 ]
      - [ -0.15048391116331,  0.00000000000000 ]
      - [ -0.16706952842806,  0.00000000000000 ]
    - # atom 6
      - [  0.12876399440842,  0.00000000000000 ]
      - [ -0.15048391116331,  0.00000000000000 ]
      - [ -0.16706952842806,  0.00000000000000 ]
    - # atom 7
      - [  0.12872780660196,  0.00000000000000 ]
      - [ -0.15053048110507,  0.00000000000000 ]
      - [ -0.16717188535638,  0.00000000000000 ]
    - # atom 8
      - [  0.12872780660196,  0.00000000000000 ]
      - [ -0.15053048110507,  0.00000000000000 ]
      - [ -0.16717188535638,  0.00000000000000 ]
    - # atom 9
      - [  0.12871394653161,  0.00000000000000 ]
      - [ -0.15052583240604,  0.00000000000000 ]
      - [ -0.16707856366619,  0.00000000000000 ]
    - # atom 10
      - [  0.12871394653161,  0.00000000000000 ]
      - [ -0.15052583240605,  0.00000000000000 ]
      - [ -0.16707856366618,  0.00000000000000 ]
    - # atom 11
      - [  0.12898816635578,  0.00000000000000 ]
      - [ -0.15046390098604,  0.00000000000000 ]
      - [ -0.16726795273552,  0.00000000000000 ]
    - # atom 12
      - [  0.12898816635578,  0.00000000000000 ]
      - [ -0.15046390098604,  0.00000000000000 ]
      - [ -0.16726795273552,  0.00000000000000 ]
  - # 4
    frequency:    2.7691615863
    eigenvector:
    - # atom 1
      - [ -0.06501405640486,  0.00000000000000 ]
      - [  0.18348626080118,  0.00000000000000 ]
      - [ -0.15810025490942,  0.00000000000000 ]
    - # atom 2
      - [ -0.06501405640489,  0.00000000000000 ]
      - [  0.18348626080120,  0.00000000000000 ]
      - [ -0.15810025490945,  0.00000000000000 ]
    - # atom 3
      - [ -0.01002880821630,  0.00000000000000 ]
      - [ -0.03359200397398,  0.00000000000000 ]
      - [  0.00479520254471,  0.00000000000000 ]
    - # atom 4
      - [ -0.01002880821628,  0.00000000000000 ]
      - [ -0.03359200397399,  0.00000000000000 ]
      - [  0.00479520254473,  0.00000000000000 ]
    - # atom 5
      - [  0.24378279505221,  0.00000000000000 ]
      - [ -0.18997003043126,  0.00000000000000 ]
      - [  0.31943792408364,  0.00000000000000 ]
    - # atom 6
      - [  0.24378279505222,  0.00000000000000 ]
      - [ -0.18997003043126,  0.00000000000000 ]
      - [  0.31943792408365,  0.00000000000000 ]
    - # atom 7
      - [  0.04748897280866,  0.00000000000000 ]
      - [  0.04875590765936,  0.00000000000000 ]
      - [  0.14827996097811,  0.00000000000000 ]
    - # atom 8
      - [  0.04748897280868,  0.00000000000000 ]
      - [  0.04875590765935,  0.00000000000000 ]
      - [  0.14827996097813,  0.00000000000000 ]
    - # atom 9
      - [ -0.09726798713894,  0.00000000000000 ]
      - [  0.25093589440431,  0.00000000000000 ]
      - [ -0.05464850054748,  0.00000000000000 ]
    - # atom 10
      - [ -0.09726798713893,  0.00000000000000 ]
      - [  0.25093589440430,  0.00000000000000 ]
      - [ -0.05464850054746,  0.00000000000000 ]
    - # atom 11
      - [ -0.08871308617467,  0.00000000000000 ]
      - [ -0.28279287441245,  0.00000000000000 ]
      - [ -0.22004903293126,  0.00000000000000 ]
    - # atom 12
      - [ -0.08871308617467,  0.00000000000000 ]
      - [ -0.28279287441245,  0.00000000000000 ]
      - [ -0.22004903293124,  0.00000000000000 ]
  - # 5
    frequency:    3.2733391910
    eigenvector:
    - # atom 1
      - [ -0.51318340755050,  0.00000000000000 ]
      - [ -0.11201046448403,  0.00000000000000 ]
      - [ -0.13826689547424,  0.00000000000000 ]
    - # atom 2
      - [  0.51318340755050,  0.00000000000000 ]
      - [  0.11201046448403,  0.00000000000000 ]
      - [  0.13826689547422,  0.00000000000000 ]
    - # atom 3
      - [ -0.01822284792028,  0.00000000000000 ]
      - [ -0.20871528088179,  0.00000000000000 ]
      - [  0.11970246489931,  0.00000000000000 ]
    - # atom 4
      - [  0.01822284792030,  0.00000000000000 ]
      - [  0.20871528088179,  0.00000000000000 ]
      - [ -0.11970246489931,  0.00000000000000 ]
    - # atom 5
      - [  0.03761364130562,  0.00000000000000 ]
      - [ -0.06315324839548,  0.00000000000000 ]
      - [ -0.00728969133264,  0.00000000000000 ]
    - # atom 6
      - [ -0.03761364130556,  0.00000000000000 ]
      - [  0.06315324839548,  0.00000000000000 ]
      - [  0.00728969133266,  0.00000000000000 ]
    - # atom 7
      - [ -0.05002759140199,  0.00000000000000 ]
      - [ -0.20297492428806,  0.00000000000000 ]
      - [ -0.02629693965966,  0.00000000000000 ]
    - # atom 8
      - [  0.05002759140199,  0.00000000000000 ]
      - [  0.20297492428806,  0.00000000000000 ]
      - [  0.02629693965965,  0.00000000000000 ]
    - # atom 9
      - [ -0.04356436065776,  0.00000000000000 ]
      - [ -0.19996768900794,  0.00000000000000 ]
      - [  0.17779651694970,  0.00000000000000 ]
    - # atom 10
      - [  0.04356436065775,  0.00000000000000 ]
      - [  0.19996768900796,  0.00000000000000 ]
      - [ -0.17779651694968,  0.00000000000000 ]
    - # atom 11
      - [  0.02442939115863,  0.00000000000000 ]
      - [ -0.07922231722100,  0.00000000000000 ]
      - [  0.12859635060148,  0.00000000000000 ]
    - # atom 12
      - [ -0.02442939115860,  0.00000000000000 ]
      - [  0.07922231722100,  0.00000000000000 ]
      - [ -0.12859635060150,  0.00000000000000 ]
  - # 6
    frequency:    3.3573145165
    eigenvector:
    - # atom 1
      - [ -0.15506197716589,  0.00000000000000 ]
      - [  0.06043523050014,  0.00000000000000 ]
      - [  0.02215276483242,  0.00000000000000 ]
    - # atom 2
      - [  0.15506197716592,  0.00000000000000 ]
      - [ -0.06043523050022,  0.00000000000000 ]
      - [ -0.02215276483243,  0.00000000000000 ]
    - # atom 3
      - [ -0.00201091055343,  0.00000000000000 ]
      - [  0.19058684168705,  0.00000000000000 ]
      - [ -0.08706184502614,  0.00000000000000 ]
    - # atom 4
      - [  0.00201091055342,  0.00000000000000 ]
      - [ -0.19058684168704,  0.00000000000000 ]
      - [  0.08706184502615,  0.00000000000000 ]
    - # atom 5
      - [ -0.19926343255919,  0.00000000000000 ]
      - [  0.09799024074897,  0.00000000000000 ]
      - [ -0.12853521676276,  0.00000000000000 ]
    - # atom 6
      - [  0.19926343255925,  0.00000000000000 ]
      - [ -0.09799024074895,  0.00000000000000 ]
      - [  0.12853521676279,  0.00000000000000 ]
    - # atom 7
      - [ -0.20810080764432,  0.00000000000000 ]
      - [  0.20284587966349,  0.00000000000000 ]
      - [ -0.21578528202180,  0.00000000000000 ]
    - # atom 8
      - [  0.20810080764426,  0.00000000000000 ]
      - [ -0.20284587966349,  0.00000000000000 ]
      - [  0.21578528202174,  0.00000000000000 ]
    - # atom 9
      - [  0.05152570483298,  0.00000000000000 ]
      - [ -0.15456472531049,  0.00000000000000 ]
      - [  0.06491146308765,  0.00000000000000 ]
    - # atom 10
      - [ -0.05152570483304,  0.00000000000000 ]
      - [  0.15456472531049,  0.00000000000000 ]
      - [ -0.06491146308755,  0.00000000000000 ]
    - # atom 11
      - [  0.25678605327424,  0.00000000000000 ]
      - [  0.36650088401513,  0.00000000000000 ]
      - [  0.00631290794636,  0.00000000000000 ]
    - # atom 12
      - [ -0.25678605327418,  0.00000000000000 ]
      - [ -0.36650088401511,  0.00000000000000 ]
      - [ -0.00631290794638,  0.00000000000000 ]
  - # 7
    frequency:    3.4864852544
    eigenvector:
    - # atom 1
      - [ -0.06313783086418,  0.00000000000000 ]
      - [  0.28599831863397,  0.00000000000000 ]
      - [ -0.16156314261762,  0.00000000000000 ]
    - # atom 2
      - [  0.06313783086403,  0.00000000000000 ]
      - [ -0.28599831863360,  0.00000000000000 ]
      - [  0.16156314261774,  0.00000000000000 ]
    - # atom 3
      - [  0.28358035494376,  0.00000000000000 ]
      - [  0.08889026097655,  0.00000000000000 ]
      - [  0.19551665645861,  0.00000000000000 ]
    - # atom 4
      - [ -0.28358035494370,  0.00000000000000 ]
      - [ -0.08889026097661,  0.00000000000000 ]
      - [ -0.19551665645862,  0.00000000000000 ]
    - # atom 5
      - [  0.07963645010821,  0.00000000000000 ]
      - [  0.02158197089949,  0.00000000000000 ]
      - [  0.09608996418079,  0.00000000000000 ]
    - # atom 6
      - [ -0.07963645010852,  0.00000000000000 ]
      - [ -0.02158197089960,  0.00000000000000 ]
      - [ -0.09608996418098,  0.00000000000000 ]
    - # atom 7
      - [  0.24536043964173,  0.00000000000000 ]
      - [  0.07532905344790,  0.00000000000000 ]
      - [  0.20406566460100,  0.00000000000000 ]
    - # atom 8
      - [ -0.24536043964136,  0.00000000000000 ]
      - [ -0.07532905344794,  0.00000000000000 ]
      - [ -0.20406566460062,  0.00000000000000 ]
    - # atom 9
      - [  0.27038786841844,  0.00000000000000 ]
      - [  0.03089852615808,  0.00000000000000 ]
      - [  0.04291672852315,  0.00000000000000 ]
    - # atom 10
      - [ -0.27038786841812,  0.00000000000000 ]
      - [ -0.03089852615812,  0.00000000000000 ]
      - [ -0.04291672852362,  0.00000000000000 ]
    - # atom 11
      - [  0.17165269644288,  0.00000000000000 ]
      - [  0.07095554134600,  0.00000000000000 ]
      - [  0.16614551733245,  0.00000000000000 ]
    - # atom 12
      - [ -0.17165269644317,  0.00000000000000 ]
      - [ -0.07095554134615,  0.00000000000000 ]
      - [ -0.16614551733231,  0.00000000000000 ]
  - # 8
    frequency:    3.5236077438
    eigenvector:
    - # atom 1
      - [ -0.09894313791935,  0.00000000000000 ]
      - [  0.24532333262449,  0.00000000000000 ]
      - [  0.08973808246133,  0.00000000000000 ]
    - # atom 2
      - [ -0.09894313791937,  0.00000000000000 ]
      - [  0.24532333262491,  0.00000000000000 ]
      - [  0.08973808246111,  0.00000000000000 ]
    - # atom 3
      - [  0.03749784189783,  0.00000000000000 ]
      - [ -0.04785711777748,  0.00000000000000 ]
      - [ -0.00633594184740,  0.00000000000000 ]
    - # atom 4
      - [  0.03749784189824,  0.00000000000000 ]
      - [ -0.04785711777738,  0.00000000000000 ]
      - [ -0.00633594184710,  0.00000000000000 ]
    - # atom 5
      - [ -0.22845589231929,  0.00000000000000 ]
      - [ -0.06717685612695,  0.00000000000000 ]
      - [ -0.14903617941411,  0.00000000000000 ]
    - # atom 6
      - [ -0.22845589231912,  0.00000000000000 ]
      - [ -0.06717685612695,  0.00000000000000 ]
      - [ -0.14903617941393,  0.00000000000000 ]
    - # atom 7
      - [  0.25420738657549,  0.00000000000000 ]
      - [ -0.03337133826534,  0.00000000000000 ]
      - [  0.25203892001124,  0.00000000000000 ]
    - # atom 8
      - [  0.25420738657590,  0.00000000000000 ]
      - [ -0.03337133826526,  0.00000000000000 ]
      - [  0.25203892001159,  0.00000000000000 ]
    - # atom 9
      - [  0.22301361665618,  0.00000000000000 ]
      - [ -0.03986450529359,  0.00000000000000 ]
      - [ -0.31758519481131,  0.00000000000000 ]
    - # atom 10
      - [  0.22301361665655,  0.00000000000000 ]
      - [ -0.03986450529348,  0.00000000000000 ]
      - [ -0.31758519481128,  0.00000000000000 ]
    - # atom 11
      - [ -0.19436236742228,  0.00000000000000 ]
      - [ -0.09003179395745,  0.00000000000000 ]
      - [  0.10952136954570,  0.00000000000000 ]
    - # atom 12
      - [ -0.19436236742210,  0.00000000000000 ]
      - [ -0.09003179395745,  0.00000000000000 ]
      - [  0.10952136954592,  0.00000000000000 ]
  - # 9
    frequency:    4.3816403080
    eigenvector:
    - # atom 1
      - [  0.54447601154381,  0.00000000000000 ]
      - [ -0.16723825030482,  0.00000000000000 ]
      - [ -0.16622671395699,  0.00000000000000 ]
    - # atom 2
      - [  0.54447601154387,  0.00000000000000 ]
      - [ -0.16723825030486,  0.00000000000000 ]
      - [ -0.16622671395702,  0.00000000000000 ]
    - # atom 3
      - [ -0.12785938103641,  0.00000000000000 ]
      - [  0.05688641769827,  0.00000000000000 ]
      - [  0.05306205051473,  0.00000000000000 ]
    - # atom 4
      - [ -0.12785938103640,  0.00000000000000 ]
      - [  0.05688641769827,  0.00000000000000 ]
      - [  0.05306205051473,  0.00000000000000 ]
    - # atom 5
      - [ -0.16903149135005,  0.00000000000000 ]
      - [  0.03687150203631,  0.00000000000000 ]
      - [  0.01537403667131,  0.00000000000000 ]
    - # atom 6
      - [ -0.16903149135005,  0.00000000000000 ]
      - [  0.03687150203631,  0.00000000000000 ]
      - [  0.01537403667131,  0.00000000000000 ]
    - # atom 7
      - [  0.00308273465549,  0.00000000000000 ]
      - [  0.01754445940463,  0.00000000000000 ]
      - [  0.12657992171785,  0.00000000000000 ]
    - # atom 8
      - [  0.00308273465549,  0.00000000000000 ]
      - [  0.01754445940463,  0.00000000000000 ]
      - [  0.12657992171786,  0.00000000000000 ]
    - # atom 9
      - [ -0.07145055299299,  0.00000000000000 ]
      - [  0.11362080879356,  0.00000000000000 ]
      - [ -0.05872437722435,  0.00000000000000 ]
    - # atom 10
      - [ -0.07145055299298,  0.00000000000000 ]
      - [  0.11362080879356,  0.00000000000000 ]
      - [ -0.05872437722434,  0.00000000000000 ]
    - # atom 11
      - [ -0.23229739946375,  0.00000000000000 ]
      - [ -0.04588208559319,  0.00000000000000 ]
      - [  0.03883660152235,  0.00000000000000 ]
    - # atom 12
      - [ -0.23229739946374,  0.00000000000000 ]
      - [ -0.04588208559319,  0.00000000000000 ]
      - [  0.03883660152236,  0.00000000000000 ]
  - # 10
    frequency:    4.4488018894
    eigenvector:
    - # atom 1
      - [  0.37826301349038,  0.00000000000000 ]
      - [ -0.35620681670107,  0.00000000000000 ]
      - [ -0.32247912290495,  0.00000000000000 ]
    - # atom 2
      - [ -0.37826301349033,  0.00000000000000 ]
      - [  0.35620681670105,  0.00000000000000 ]
      - [  0.32247912290492,  0.00000000000000 ]
    - # atom 3
      - [  0.05266282475270,  0.00000000000000 ]
      - [ -0.10120406467798,  0.00000000000000 ]
      - [  0.10983661592374,  0.00000000000000 ]
    - # atom 4
      - [ -0.05266282475270,  0.00000000000000 ]
      - [  0.10120406467799,  0.00000000000000 ]
      - [ -0.10983661592374,  0.00000000000000 ]
    - # atom 5
      - [ -0.05670258832644,  0.00000000000000 ]
      - [ -0.00504676897544,  0.00000000000000 ]
      - [ -0.05237570849909,  0.00000000000000 ]
    - # atom 6
      - [  0.05670258832644,  0.00000000000000 ]
      - [  0.00504676897545,  0.00000000000000 ]
      - [  0.05237570849909,  0.00000000000000 ]
    - # atom 7
      - [ -0.04638624322853,  0.00000000000000 ]
      - [ -0.04615663304294,  0.00000000000000 ]
      - [  0.00113319118919,  0.00000000000000 ]
    - # atom 8
      - [  0.04638624322854,  0.00000000000000 ]
      - [  0.04615663304293,  0.00000000000000 ]
      - [ -0.00113319118919,  0.00000000000000 ]
    - # atom 9
      - [  0.07340773337179,  0.00000000000000 ]
      - [ -0.17996533340043,  0.00000000000000 ]
      - [  0.09528520020649,  0.00000000000000 ]
    - # atom 10
      - [ -0.07340773337181,  0.00000000000000 ]
      - [  0.17996533340045,  0.00000000000000 ]
      - [ -0.09528520020649,  0.00000000000000 ]
    - # atom 11
      - [  0.14063975722830,  0.00000000000000 ]
      - [  0.06524813886924,  0.00000000000000 ]
      - [  0.14071842834353,  0.00000000000000 ]
    - # atom 12
      - [ -0.14063975722832,  0.00000000000000 ]
      - [ -0.06524813886925,  0.00000000000000 ]
      - [ -0.14071842834353,  0.00000000000000 ]
  - # 11
    frequency:    5.5489622578
    eigenvector:
    - # atom 1
      - [  0.04498190401059,  0.00000000000000 ]
      - [ -0.06086917221174,  0.00000000000000 ]
      - [  0.07551307393842,  0.00000000000000 ]
    - # atom 2
      - [ -0.04498190401058,  0.00000000000000 ]
      - [  0.06086917221175,  0.00000000000000 ]
      - [ -0.07551307393842,  0.00000000000000 ]
    - # atom 3
      - [  0.11911886365322,  0.00000000000000 ]
      - [  0.00032884959354,  0.00000000000000 ]
      - [  0.00788196666120,  0.00000000000000 ]
    - # atom 4
      - [ -0.11911886365322,  0.00000000000000 ]
      - [ -0.00032884959354,  0.00000000000000 ]
      - [ -0.00788196666119,  0.00000000000000 ]
    - # atom 5
      - [  0.32326746420275,  0.00000000000000 ]
      - [ -0.07497642706660,  0.00000000000000 ]
      - [  0.25727746636766,  0.00000000000000 ]
    - # atom 6
      - [ -0.32326746420278,  0.00000000000000 ]
      - [  0.07497642706657,  0.00000000000000 ]
      - [ -0.25727746636765,  0.00000000000000 ]
    - # atom 7
      - [ -0.09558578331800,  0.00000000000000 ]
      - [  0.06651878114605,  0.00000000000000 ]
      - [ -0.12611405994381,  0.00000000000000 ]
    - # atom 8
      - [  0.09558578331798,  0.00000000000000 ]
      - [ -0.06651878114602,  0.00000000000000 ]
      - [  0.12611405994382,  0.00000000000000 ]
    - # atom 9
      - [ -0.10456912685524,  0.00000000000000 ]
      - [  0.07288702550192,  0.00000000000000 ]
      - [  0.26917236133210,  0.00000000000000 ]
    - # atom 10
      - [  0.10456912685525,  0.00000000000000 ]
      - [ -0.07288702550193,  0.00000000000000 ]
      - [ -0.26917236133211,  0.00000000000000 ]
    - # atom 11
      - [  0.32502728751435,  0.00000000000000 ]
      - [ -0.07791538839816,  0.00000000000000 ]
      - [ -0.26100215575571,  0.00000000000000 ]
    - # atom 12
      - [ -0.32502728751433,  0.00000000000000 ]
      - [  0.07791538839817,  0.00000000000000 ]
      - [  0.26100215575570,  0.00000000000000 ]
  - # 12
    frequency:    5.6678420782
    eigenvector:
    - # atom 1
      - [  0.13683865125367,  0.00000000000000 ]
      - [  0.13482704036009,  0.00000000000000 ]
      - [  0.03031008476925,  0.00000000000000 ]
    - # atom 2
      - [  0.13683865125367,  0.00000000000000 ]
      - [  0.13482704036009,  0.00000000000000 ]
      - [  0.03031008476927,  0.00000000000000 ]
    - # atom 3
      - [ -0.01606225186160,  0.00000000000000 ]
      - [ -0.02293108592186,  0.00000000000000 ]
      - [  0.00311349996423,  0.00000000000000 ]
    - # atom 4
      - [ -0.01606225186159,  0.00000000000000 ]
      - [ -0.02293108592185,  0.00000000000000 ]
      - [  0.00311349996423,  0.00000000000000 ]
    - # atom 5
      - [ -0.25772430451161,  0.00000000000000 ]
      - [ -0.28467774206382,  0.00000000000000 ]
      - [  0.12731993336089,  0.00000000000000 ]
    - # atom 6
      - [ -0.25772430451157,  0.00000000000000 ]
      - [ -0.28467774206383,  0.00000000000000 ]
      - [  0.12731993336092,  0.00000000000000 ]
    - # atom 7
      - [ -0.25964226323107,  0.00000000000000 ]
      - [  0.28805457642454,  0.00000000000000 ]
      - [  0.05340646431964,  0.00000000000000 ]
    - # atom 8
      - [ -0.25964226323108,  0.00000000000000 ]
      - [  0.28805457642455,  0.00000000000000 ]
      - [  0.05340646431963,  0.00000000000000 ]
    - # atom 9
      - [  0.10443436947204,  0.00000000000000 ]
      - [ -0.17684549893548,  0.00000000000000 ]
      - [ -0.07158339019511,  0.00000000000000 ]
    - # atom 10
      - [  0.10443436947203,  0.00000000000000 ]
      - [ -0.17684549893546,  0.00000000000000 ]
      - [ -0.07158339019509,  0.00000000000000 ]
    - # atom 11
      - [  0.27031859835183,  0.00000000000000 ]
      - [  0.04186123330561,  0.00000000000000 ]
      - [ -0.14946463137719,  0.00000000000000 ]
    - # atom 12
      - [  0.27031859835186,  0.00000000000000 ]
      - [  0.04186123330560,  0.00000000000000 ]
      - [ -0.14946463137722,  0.00000000000000 ]
  - # 13
    frequency:    6.4543834477
    eigenvector:
    - # atom 1
      - [ -0.05969402638745,  0.00000000000000 ]
      - [ -0.24087548176372,  0.00000000000000 ]
      - [  0.34554980691137,  0.00000000000000 ]
    - # atom 2
      - [  0.05969402638745,  0.00000000000000 ]
      - [  0.24087548176371,  0.00000000000000 ]
      - [ -0.34554980691138,  0.00000000000000 ]
    - # atom 3
      - [  0.20068190998187,  0.00000000000000 ]
      - [ -0.13882501919867,  0.00000000000000 ]
      - [ -0.13800697689449,  0.00000000000000 ]
    - # atom 4
      - [ -0.20068190998188,  0.00000000000000 ]
      - [  0.13882501919867,  0.00000000000000 ]
      - [  0.13800697689449,  0.00000000000000 ]
    - # atom 5
      - [ -0.02157558199263,  0.00000000000000 ]
      - [ -0.08190367223145,  0.00000000000000 ]
      - [ -0.09158756465956,  0.00000000000000 ]
    - # atom 6
      - [  0.02157558199262,  0.00000000000000 ]
      - [  0.08190367223145,  0.00000000000000 ]
      - [  0.09158756465956,  0.00000000000000 ]
    - # atom 7
      - [  0.17135665366878,  0.00000000000000 ]
      - [ -0.00380618865877,  0.00000000000000 ]
      - [  0.03563816834411,  0.00000000000000 ]
    - # atom 8
      - [ -0.17135665366878,  0.00000000000000 ]
      - [  0.00380618865876,  0.00000000000000 ]
      - [ -0.03563816834411,  0.00000000000000 ]
    - # atom 9
      - [  0.26041433242410,  0.00000000000000 ]
      - [ -0.18604310707150,  0.00000000000000 ]
      - [ -0.22101052953679,  0.00000000000000 ]
    - # atom 10
      - [ -0.26041433242410,  0.00000000000000 ]
      - [  0.18604310707150,  0.00000000000000 ]
      - [  0.22101052953679,  0.00000000000000 ]
    - # atom 11
      - [  0.17680494929134,  0.00000000000000 ]
      - [ -0.06580810969966,  0.00000000000000 ]
      - [ -0.08570725700343,  0.00000000000000 ]
    - # atom 12
      - [ -0.17680494929134,  0.00000000000000 ]
      - [  0.06580810969966,  0.00000000000000 ]
      - [  0.08570725700344,  0.00000000000000 ]
  - # 14
    frequency:    6.7481585186
    eigenvector:
    - # atom 1
      - [ -0.26005916908663,  0.00000000000000 ]
      - [ -0.32554133042506,  0.00000000000000 ]
      - [ -0.41441123747458,  0.00000000000000 ]
    - # atom 2
      - [ -0.26005916908664,  0.00000000000000 ]
      - [ -0.32554133042506,  0.00000000000000 ]
      - [ -0.41441123747458,  0.00000000000000 ]
    - # atom 3
      - [  0.05340075191039,  0.00000000000000 ]
      - [  0.10413628527163,  0.00000000000000 ]
      - [  0.12983608661003,  0.00000000000000 ]
    - # atom 4
      - [  0.05340075191040,  0.00000000000000 ]
      - [  0.10413628527162,  0.00000000000000 ]
      - [  0.12983608661003,  0.00000000000000 ]
    - # atom 5
      - [ -0.09953483843269,  0.00000000000000 ]
      - [  0.00765357521324,  0.00000000000000 ]
      - [  0.09175991397664,  0.00000000000000 ]
    - # atom 6
      - [ -0.09953483843269,  0.00000000000000 ]
      - [  0.00765357521324,  0.00000000000000 ]
      - [  0.09175991397664,  0.00000000000000 ]
    - # atom 7
      - [  0.08332467542398,  0.00000000000000 ]
      - [  0.11804485643517,  0.00000000000000 ]
      - [  0.19033523725796,  0.00000000000000 ]
    - # atom 8
      - [  0.08332467542398,  0.00000000000000 ]
      - [  0.11804485643517,  0.00000000000000 ]
      - [  0.19033523725795,  0.00000000000000 ]
    - # atom 9
      - [  0.14727217181696,  0.00000000000000 ]
      - [  0.01653913380139,  0.00000000000000 ]
      - [ -0.03500193081296,  0.00000000000000 ]
    - # atom 10
      - [  0.14727217181696,  0.00000000000000 ]
      - [  0.01653913380139,  0.00000000000000 ]
      - [ -0.03500193081296,  0.00000000000000 ]
    - # atom 11
      - [  0.10325541613236,  0.00000000000000 ]
      - [  0.10168240761556,  0.00000000000000 ]
      - [  0.06650174763689,  0.00000000000000 ]
    - # atom 12
      - [  0.10325541613237,  0.00000000000000 ]