# epsilon and Z* of atoms 1 3 5 7 9 11
   2.48086587   -0.04420210   -0.24618519   -0.04420194    2.33050635    0.08527335   -0.24618574    0.08527382    2.62627525 
   1.22294586    0.04018449    0.00648138    0.02791321    1.17876906   -0.03877504   -0.01774940   -0.04779330    1.18338263 
   2.93305267   -0.48086269   -0.07999923    0.08095225    3.23754274    0.07687205    0.13251422    0.73486905    3.32335342 
  -0.49596973    0.38164383    0.21820611    0.19225114   -0.86317679   -0.33564167    0.15491956   -0.59488994   -0.76534120 
  -1.24030983   -0.24649482    0.44228020   -0.26020625   -1.18532176    0.17539031    0.41171269    0.13351620   -1.30639816 
  -1.33220867   -0.13694150   -0.24266638   -0.32645735   -1.05847902   -0.24330954   -0.50615167   -0.38309097   -1.26756834 
  -1.08751029    0.44247068   -0.34430208    0.28554701   -1.30933424    0.36546388   -0.17524541    0.15738897   -1.16742836 
