natom:   12
displacements:
- atom:    1
  direction:
    [   1.0000000000000000,  0.0000000000000000,  0.0000000000000000 ]
  displacement:
    [   0.0099998849312446,  0.0000346132289983, -0.0000332157529605 ]
- atom:    1
  direction:
    [  -1.0000000000000000,  0.0000000000000000,  0.0000000000000000 ]
  displacement:
    [  -0.0099998849312446, -0.0000346132289983,  0.0000332157529605 ]
- atom:    1
  direction:
    [   0.0000000000000000,  1.0000000000000000,  0.0000000000000000 ]
  displacement:
    [  -0.0012586774843446,  0.0099204452663013,  0.0000222869631077 ]
- atom:    1
  direction:
    [   0.0000000000000000, -1.0000000000000000,  0.0000000000000000 ]
  displacement:
    [   0.0012586774843446, -0.0099204452663013, -0.0000222869631077 ]
- atom:    1
  direction:
    [   0.0000000000000000,  0.0000000000000000,  1.0000000000000000 ]
  displacement:
    [  -0.0023236460927761, -0.0023417905993151,  0.0094401634320856 ]
- atom:    1
  direction:
    [   0.0000000000000000,  0.0000000000000000, -1.0000000000000000 ]
  displacement:
    [   0.0023236460927761,  0.0023417905993151, -0.0094401634320856 ]
- atom:    3
  direction:
    [   1.0000000000000000,  0.0000000000000000,  0.0000000000000000 ]
  displacement:
    [   0.0099998849312446,  0.0000346132289983, -0.0000332157529605 ]
- atom:    3
  direction:
    [  -1.0000000000000000,  0.0000000000000000,  0.0000000000000000 ]
  displacement:
    [  -0.0099998849312446, -0.0000346132289983,  0.0000332157529605 ]
- atom:    3
  direction:
    [   0.0000000000000000,  1.0000000000000000,  0.0000000000000000 ]
  displacement:
    [  -0.0012586774843446,  0.0099204452663013,  0.0000222869631077 ]
- atom:    3
  direction:
    [   0.0000000000000000, -1.0000000000000000,  0.0000000000000000 ]
  displacement:
    [   0.0012586774843446, -0.0099204452663013, -0.0000222869631077 ]
- atom:    3
  direction:
    [   0.0000000000000000,  0.0000000000000000,  1.0000000000000000 ]
  displacement:
    [  -0.0023236460927761, -0.0023417905993151,  0.0094401634320856 ]
- atom:    3
  direction:
    [   0.0000000000000000,  0.0000000000000000, -1.0000000000000000 ]
  displacement:
    [   0.0023236460927761,  0.0023417905993151, -0.0094401634320856 ]
- atom:    5
  direction:
    [   1.0000000000000000,  0.0000000000000000,  0.0000000000000000 ]
  displacement:
    [   0.0099998849312446,  0.0000346132289983, -0.0000332157529605 ]
- atom:    5
  direction:
    [  -1.0000000000000000,  0.0000000000000000,  0.0000000000000000 ]
  displacement:
    [  -0.0099998849312446, -0.0000346132289983,  0.0000332157529605 ]
- atom:    5
  direction:
    [   0.0000000000000000,  1.0000000000000000,  0.0000000000000000 ]
  displacement:
    [  -0.0012586774843446,  0.0099204452663013,  0.0000222869631077 ]
- atom:    5
  direction:
    [   0.0000000000000000, -1.0000000000000000,  0.0000000000000000 ]
  displacement:
    [   0.0012586774843446, -0.0099204452663013, -0.0000222869631077 ]
- atom:    5
  direction:
    [   0.0000000000000000,  0.0000000000000000,  1.0000000000000000 ]
  displacement:
    [  -0.0023236460927761, -0.0023417905993151,  0.0094401634320856 ]
- atom:    5
  direction:
    [   0.0000000000000000,  0.0000000000000000, -1.0000000000000000 ]
  displacement:
    [   0.0023236460927761,  0.0023417905993151, -0.0094401634320856 ]
- atom:    7
  direction:
    [   1.0000000000000000,  0.0000000000000000,  0.0000000000000000 ]
  displacement:
    [   0.0099998849312446,  0.0000346132289983, -0.0000332157529605 ]
- atom:    7
  direction:
    [  -1.0000000000000000,  0.0000000000000000,  0.0000000000000000 ]
  displacement:
    [  -0.0099998849312446, -0.0000346132289983,  0.0000332157529605 ]
- atom:    7
  direction:
    [   0.0000000000000000,  1.0000000000000000,  0.0000000000000000 ]
  displacement:
    [  -0.0012586774843446,  0.0099204452663013,  0.0000222869631077 ]
- atom:    7
  direction:
    [   0.0000000000000000, -1.0000000000000000,  0.0000000000000000 ]
  displacement:
    [   0.0012586774843446, -0.0099204452663013, -0.0000222869631077 ]
- atom:    7
  direction:
    [   0.0000000000000000,  0.0000000000000000,  1.0000000000000000 ]
  displacement:
    [  -0.0023236460927761, -0.0023417905993151,  0.0094401634320856 ]
- atom:    7
  direction:
    [   0.0000000000000000,  0.0000000000000000, -1.0000000000000000 ]
  displacement:
    [   0.0023236460927761,  0.0023417905993151, -0.0094401634320856 ]
- atom:    9
  direction:
    [   1.0000000000000000,  0.0000000000000000,  0.0000000000000000 ]
  displacement:
    [   0.0099998849312446,  0.0000346132289983, -0.0000332157529605 ]
- atom:    9
  direction:
    [  -1.0000000000000000,  0.0000000000000000,  0.0000000000000000 ]
  displacement:
    [  -0.0099998849312446, -0.0000346132289983,  0.0000332157529605 ]
- atom:    9
  direction:
    [   0.0000000000000000,  1.0000000000000000,  0.0000000000000000 ]
  displacement:
    [  -0.0012586774843446,  0.0099204452663013,  0.0000222869631077 ]
- atom:    9
  direction:
    [   0.0000000000000000, -1.0000000000000000,  0.0000000000000000 ]
  displacement:
    [   0.0012586774843446, -0.0099204452663013, -0.0000222869631077 ]
- atom:    9
  direction:
    [   0.0000000000000000,  0.0000000000000000,  1.0000000000000000 ]
  displacement:
    [  -0.0023236460927761, -0.0023417905993151,  0.0094401634320856 ]
- atom:    9
  direction:
    [   0.0000000000000000,  0.0000000000000000, -1.0000000000000000 ]
  displacement:
    [   0.0023236460927761,  0.0023417905993151, -0.0094401634320856 ]
- atom:   11
  direction:
    [   1.0000000000000000,  0.0000000000000000,  0.0000000000000000 ]
  displacement:
    [   0.0099998849312446,  0.0000346132289983, -0.0000332157529605 ]
- atom:   11
  direction:
    [  -1.0000000000000000,  0.0000000000000000,  0.0000000000000000 ]
  displacement:
    [  -0.0099998849312446, -0.0000346132289983,  0.0000332157529605 ]
- atom:   11
  direction:
    [   0.0000000000000000,  1.0000000000000000,  0.0000000000000000 ]
  displacement:
    [  -0.0012586774843446,  0.0099204452663013,  0.0000222869631077 ]
- atom:   11
  direction:
    [   0.0000000000000000, -1.0000000000000000,  0.0000000000000000 ]
  displacement:
    [   0.0012586774843446, -0.0099204452663013, -0.0000222869631077 ]
- atom:   11
  direction:
    [   0.0000000000000000,  0.0000000000000000,  1.0000000000000000 ]
  displacement:
    [  -0.0023236460927761, -0.0023417905993151,  0.0094401634320856 ]
- atom:   11
  direction:
    [   0.0000000000000000,  0.0000000000000000, -1.0000000000000000 ]
  displacement:
    [   0.0023236460927761,  0.0023417905993151, -0.0094401634320856 ]
lattice:
- [     4.707048549438288,     0.016292802414033,    -0.015634996089066 ] # a
- [    -0.689936955420390,     5.437836052982735,     0.012216472975265 ] # b
- [    -1.407137471644865,    -1.418125295967534,     5.716708643814624 ] # c
points:
- symbol: Na # 1
  coordinates: [  0.041379903716209,  0.313303369937704,  0.212037204825537 ]
  mass: 22.989769
- symbol: Na # 2
  coordinates: [  0.958620096283791,  0.686696630062303,  0.787962795174463 ]
  mass: 22.989769
- symbol: S  # 3
  coordinates: [  0.611529804599711,  0.776843835664714,  0.242789897384048 ]
  mass: 32.065000
- symbol: S  # 4
  coordinates: [  0.388470195400289,  0.223156164335286,  0.757210102615952 ]
  mass: 32.065000
- symbol: O  # 5
  coordinates: [  0.580935064124921,  0.040444916902607,  0.416581793891826 ]
  mass: 15.999400
- symbol: O  # 6
  coordinates: [  0.419064935875072,  0.959555083097392,  0.583418206108175 ]
  mass: 15.999400
- symbol: O  # 7
  coordinates: [  0.774814853060195,  0.897773909679151,  0.106465405378478 ]
  mass: 15.999400
- symbol: O  # 8
  coordinates: [  0.225185146939805,  0.102226090320849,  0.893534594621522 ]
  mass: 15.999400
- symbol: O  # 9
  coordinates: [  0.310577406909895,  0.647886502230760,  0.119619457487953 ]
  mass: 15.999400
- symbol: O  # 10
  coordinates: [  0.689422593090105,  0.352113497769240,  0.880380542512047 ]
  mass: 15.999400
- symbol: O  # 11
  coordinates: [  0.774298295613356,  0.633529112700471,  0.390753964618193 ]
  mass: 15.999400
- symbol: O  # 12
  coordinates: [  0.225701704386644,  0.366470887299530,  0.609246035381807 ]
  mass: 15.999400