natom:   12
displacements:
- atom:    1
  direction:
    [   1.0000000000000000,  0.0000000000000000,  0.0000000000000000 ]
  displacement:
    [   0.0100000000000000,  0.0000000000000000,  0.0000000000000000 ]
- atom:    1
  direction:
    [  -1.0000000000000000,  0.0000000000000000,  0.0000000000000000 ]
  displacement:
    [  -0.0100000000000000,  0.0000000000000000,  0.0000000000000000 ]
- atom:    1
  direction:
    [   0.0000000000000000,  1.0000000000000000,  0.0000000000000000 ]
  displacement:
    [  -0.0012910713290048,  0.0099163065111674,  0.0000000000000000 ]
- atom:    1
  direction:
    [   0.0000000000000000, -1.0000000000000000,  0.0000000000000000 ]
  displacement:
    [   0.0012910713290048, -0.0099163065111674,  0.0000000000000000 ]
- atom:    1
  direction:
    [   0.0000000000000000,  0.0000000000000000,  1.0000000000000000 ]
  displacement:
    [  -0.0023067814067162, -0.0023747862593952,  0.0094360558372562 ]
- atom:    1
  direction:
    [   0.0000000000000000,  0.0000000000000000, -1.0000000000000000 ]
  displacement:
    [   0.0023067814067162,  0.0023747862593952, -0.0094360558372562 ]
- atom:    3
  direction:
    [   1.0000000000000000,  0.0000000000000000,  0.0000000000000000 ]
  displacement:
    [   0.0100000000000000,  0.0000000000000000,  0.0000000000000000 ]
- atom:    3
  direction:
    [  -1.0000000000000000,  0.0000000000000000,  0.0000000000000000 ]
  displacement:
    [  -0.0100000000000000,  0.0000000000000000,  0.0000000000000000 ]
- atom:    3
  direction:
    [   0.0000000000000000,  1.0000000000000000,  0.0000000000000000 ]
  displacement:
    [  -0.0012910713290048,  0.0099163065111674,  0.0000000000000000 ]
- atom:    3
  direction:
    [   0.0000000000000000, -1.0000000000000000,  0.0000000000000000 ]
  displacement:
    [   0.0012910713290048, -0.0099163065111674,  0.0000000000000000 ]
- atom:    3
  direction:
    [   0.0000000000000000,  0.0000000000000000,  1.0000000000000000 ]
  displacement:
    [  -0.0023067814067162, -0.0023747862593952,  0.0094360558372562 ]
- atom:    3
  direction:
    [   0.0000000000000000,  0.0000000000000000, -1.0000000000000000 ]
  displacement:
    [   0.0023067814067162,  0.0023747862593952, -0.0094360558372562 ]
- atom:    5
  direction:
    [   1.0000000000000000,  0.0000000000000000,  0.0000000000000000 ]
  displacement:
    [   0.0100000000000000,  0.0000000000000000,  0.0000000000000000 ]
- atom:    5
  direction:
    [  -1.0000000000000000,  0.0000000000000000,  0.0000000000000000 ]
  displacement:
    [  -0.0100000000000000,  0.0000000000000000,  0.0000000000000000 ]
- atom:    5
  direction:
    [   0.0000000000000000,  1.0000000000000000,  0.0000000000000000 ]
  displacement:
    [  -0.0012910713290048,  0.0099163065111674,  0.0000000000000000 ]
- atom:    5
  direction:
    [   0.0000000000000000, -1.0000000000000000,  0.0000000000000000 ]
  displacement:
    [   0.0012910713290048, -0.0099163065111674,  0.0000000000000000 ]
- atom:    5
  direction:
    [   0.0000000000000000,  0.0000000000000000,  1.0000000000000000 ]
  displacement:
    [  -0.0023067814067162, -0.0023747862593952,  0.0094360558372562 ]
- atom:    5
  direction:
    [   0.0000000000000000,  0.0000000000000000, -1.0000000000000000 ]
  displacement:
    [   0.0023067814067162,  0.0023747862593952, -0.0094360558372562 ]
- atom:    7
  direction:
    [   1.0000000000000000,  0.0000000000000000,  0.0000000000000000 ]
  displacement:
    [   0.0100000000000000,  0.0000000000000000,  0.0000000000000000 ]
- atom:    7
  direction:
    [  -1.0000000000000000,  0.0000000000000000,  0.0000000000000000 ]
  displacement:
    [  -0.0100000000000000,  0.0000000000000000,  0.0000000000000000 ]
- atom:    7
  direction:
    [   0.0000000000000000,  1.0000000000000000,  0.0000000000000000 ]
  displacement:
    [  -0.0012910713290048,  0.0099163065111674,  0.0000000000000000 ]
- atom:    7
  direction:
    [   0.0000000000000000, -1.0000000000000000,  0.0000000000000000 ]
  displacement:
    [   0.0012910713290048, -0.0099163065111674,  0.0000000000000000 ]
- atom:    7
  direction:
    [   0.0000000000000000,  0.0000000000000000,  1.0000000000000000 ]
  displacement:
    [  -0.0023067814067162, -0.0023747862593952,  0.0094360558372562 ]
- atom:    7
  direction:
    [   0.0000000000000000,  0.0000000000000000, -1.0000000000000000 ]
  displacement:
    [   0.0023067814067162,  0.0023747862593952, -0.0094360558372562 ]
- atom:    9
  direction:
    [   1.0000000000000000,  0.0000000000000000,  0.0000000000000000 ]
  displacement:
    [   0.0100000000000000,  0.0000000000000000,  0.0000000000000000 ]
- atom:    9
  direction:
    [  -1.0000000000000000,  0.0000000000000000,  0.0000000000000000 ]
  displacement:
    [  -0.0100000000000000,  0.0000000000000000,  0.0000000000000000 ]
- atom:    9
  direction:
    [   0.0000000000000000,  1.0000000000000000,  0.0000000000000000 ]
  displacement:
    [  -0.0012910713290048,  0.0099163065111674,  0.0000000000000000 ]
- atom:    9
  direction:
    [   0.0000000000000000, -1.0000000000000000,  0.0000000000000000 ]
  displacement:
    [   0.0012910713290048, -0.0099163065111674,  0.0000000000000000 ]
- atom:    9
  direction:
    [   0.0000000000000000,  0.0000000000000000,  1.0000000000000000 ]
  displacement:
    [  -0.0023067814067162, -0.0023747862593952,  0.0094360558372562 ]
- atom:    9
  direction:
    [   0.0000000000000000,  0.0000000000000000, -1.0000000000000000 ]
  displacement:
    [   0.0023067814067162,  0.0023747862593952, -0.0094360558372562 ]
- atom:   11
  direction:
    [   1.0000000000000000,  0.0000000000000000,  0.0000000000000000 ]
  displacement:
    [   0.0100000000000000,  0.0000000000000000,  0.0000000000000000 ]
- atom:   11
  direction:
    [  -1.0000000000000000,  0.0000000000000000,  0.0000000000000000 ]
  displacement:
    [  -0.0100000000000000,  0.0000000000000000,  0.0000000000000000 ]
- atom:   11
  direction:
    [   0.0000000000000000,  1.0000000000000000,  0.0000000000000000 ]
  displacement:
    [  -0.0012910713290048,  0.0099163065111674,  0.0000000000000000 ]
- atom:   11
  direction:
    [   0.0000000000000000, -1.0000000000000000,  0.0000000000000000 ]
  displacement:
    [   0.0012910713290048, -0.0099163065111674,  0.0000000000000000 ]
- atom:   11
  direction:
    [   0.0000000000000000,  0.0000000000000000,  1.0000000000000000 ]
  displacement:
    [  -0.0023067814067162, -0.0023747862593952,  0.0094360558372562 ]
- atom:   11
  direction:
    [   0.0000000000000000,  0.0000000000000000, -1.0000000000000000 ]
  displacement:
    [   0.0023067814067162,  0.0023747862593952, -0.0094360558372562 ]
lattice:
- [     4.780000000000000,     0.000000000000000,     0.000000000000000 ] # a
- [    -0.719772265920187,     5.528340879975848,     0.000000000000000 ] # b
- [    -1.405060554830849,    -1.446482310597604,     5.747501610472731 ] # c
points:
- symbol: Na # 1
  coordinates: [  0.035621395966386,  0.314345185450140,  0.209003835812784 ]
  mass: 22.989769
- symbol: Na # 2
  coordinates: [  0.964378604033614,  0.685654814549860,  0.790996164187215 ]
  mass: 22.989769
- symbol: S  # 3
  coordinates: [  0.612195343657615,  0.777661437466725,  0.244840150652113 ]
  mass: 32.065000
- symbol: S  # 4
  coordinates: [  0.387804656342385,  0.222338562533276,  0.755159849347887 ]
  mass: 32.065000
- symbol: O  # 5
  coordinates: [  0.581378713412903,  0.038625183262444,  0.417086933834833 ]
  mass: 15.999400
- symbol: O  # 6
  coordinates: [  0.418621286587097,  0.961374816737556,  0.582913066165167 ]
  mass: 15.999400
- symbol: O  # 7
  coordinates: [  0.773672260256952,  0.896196261438692,  0.108231104466439 ]
  mass: 15.999400
- symbol: O  # 8
  coordinates: [  0.226327739743048,  0.103803738561308,  0.891768895533561 ]
  mass: 15.999400
- symbol: O  # 9
  coordinates: [  0.315320906117011,  0.648286320083679,  0.122497045234399 ]
  mass: 15.999400
- symbol: O  # 10
  coordinates: [  0.684679093882990,  0.351713679916321,  0.877502954765601 ]
  mass: 15.999400
- symbol: O  # 11
  coordinates: [  0.773083421410654,  0.638872137802246,  0.392502803217119 ]
  mass: 15.999400
- symbol: O  # 12
  coordinates: [  0.226916578589346,  0.361127862197754,  0.607497196782880 ]
  mass: 15.999400