12   
36   

1    
  0.0099998849312446   0.0000346132289983  -0.0000332157529605
  -0.0165340300   -0.0074694000   -0.0028318300
  -0.0034042000   -0.0000887500   -0.0008290900
   0.0201325900    0.0065650100   -0.0035365300
   0.0078382600   -0.0018621500    0.0081860600
   0.0012157700    0.0275464300    0.0030031700
  -0.0048882900   -0.0266962700   -0.0029657400
   0.0266728300    0.0270294400   -0.0274443000
  -0.0276151000   -0.0254907800    0.0264436100
  -0.0431755700   -0.0022978100   -0.0239801300
   0.0431435900    0.0042635400    0.0247987000
   0.0179087100   -0.0241722100    0.0252699900
  -0.0212945600    0.0226729700   -0.0261139100

1    
 -0.0099998849312446  -0.0000346132289983   0.0000332157529605
   0.0220514100    0.0061474600    0.0031635400
  -0.0017997900    0.0010615200    0.0010001400
  -0.0111230200    0.0025344700   -0.0081576600
  -0.0169221700   -0.0070907400    0.0033191700
   0.0061788500    0.0225096800    0.0025945000
  -0.0025498700   -0.0233326200   -0.0026468100
   0.0285124100    0.0203030400   -0.0299061100
  -0.0275195100   -0.0219673400    0.0307805000
  -0.0423002600   -0.0118954700   -0.0178802100
   0.0422923400    0.0101405500    0.0168765600
   0.0203744000   -0.0220730500    0.0289319800
  -0.0171947900    0.0236625000   -0.0280755900

1    
 -0.0012586774843446   0.0099204452663013   0.0000222869631077
  -0.0014967900   -0.0326240700    0.0044043200
  -0.0030739600    0.0030396700    0.0005349000
   0.0104690800    0.0287839400   -0.0084569900
  -0.0097315700   -0.0088028200    0.0017443900
   0.0053179900    0.0206956100    0.0013013500
  -0.0035191900   -0.0237528800   -0.0020292700
   0.0286252000    0.0276294200   -0.0248053200
  -0.0281768600   -0.0210745000    0.0304934400
  -0.0398558500   -0.0019318000   -0.0226460700
   0.0422527000    0.0098597500    0.0179324500
   0.0174962000   -0.0260521900    0.0294685800
  -0.0183069400    0.0242298700   -0.0279418000

1    
  0.0012586774843446  -0.0099204452663013  -0.0000222869631077
   0.0069110600    0.0314805900   -0.0042050400
  -0.0021135500   -0.0020589900   -0.0004057100
  -0.0015099900   -0.0197733300   -0.0031688400
   0.0006577700   -0.0001263900    0.0099292700
   0.0020958900    0.0293909700    0.0042827900
  -0.0038944600   -0.0262884600   -0.0035927800
   0.0263352600    0.0192495800   -0.0326903100
  -0.0269997600   -0.0263229600    0.0268087000
  -0.0453625500   -0.0120134100   -0.0192785100
   0.0432312900    0.0044791400    0.0238551700
   0.0208059000   -0.0201516800    0.0247109800
  -0.0201568500    0.0221349300   -0.0262457200

1    
 -0.0023236460927761  -0.0023417905993151   0.0094401634320856
   0.0055763900    0.0125776100   -0.0381801200
  -0.0031273800    0.0003828300    0.0038439200
  -0.0020655000    0.0018202800   -0.0152605600
   0.0000046800   -0.0128780600    0.0283607200
   0.0054827400    0.0249475600    0.0025397400
  -0.0050225600   -0.0244102800   -0.0038524600
   0.0287900500    0.0241083000   -0.0269167100
  -0.0298077100   -0.0202708900    0.0279247500
  -0.0440438800   -0.0128038900   -0.0164023400
   0.0443426000    0.0056877700    0.0237926300
   0.0193651800   -0.0235165100    0.0313665000
  -0.0194946000    0.0243552600   -0.0172160900

1    
  0.0023236460927761   0.0023417905993151  -0.0094401634320856
  -0.0006228700   -0.0136979200    0.0376124600
  -0.0020672900    0.0006177600   -0.0036685800
   0.0111284000    0.0071495300    0.0035904700
  -0.0089704100    0.0038379100   -0.0167128000
   0.0019427000    0.0251264500    0.0030614500
  -0.0024061700   -0.0256005600   -0.0017360600
   0.0264296700    0.0233394900   -0.0304122800
  -0.0252003800   -0.0272086800    0.0291947400
  -0.0413678600   -0.0013949600   -0.0254105300
   0.0409105600    0.0087494700    0.0177336600
   0.0190254400   -0.0227767100    0.0227859800
  -0.0188017900    0.0218582100   -0.0360385100

3    
  0.0099998849312446   0.0000346132289983  -0.0000332157529605
   0.0181743200    0.0075868000   -0.0012108500
   0.0098097100   -0.0032040000    0.0068153900
  -0.7564460800   -0.1299375400   -0.1086315100
  -0.0151877900   -0.0039797500    0.0050553300
   0.0391981600    0.0161878400    0.0074716600
   0.0197709900   -0.0262919200   -0.0284739500
   0.2412216900    0.1663290600   -0.1566611500
  -0.0242769300   -0.0255894600    0.0250884900
   0.2642470600    0.1020612500    0.1249968300
   0.0505174000    0.0100219500    0.0271505600
   0.1698695700   -0.1359609800    0.1291139800
  -0.0168981100    0.0227767500   -0.0307147700

3    
 -0.0099998849312446  -0.0000346132289983   0.0000332157529605
  -0.0129964700   -0.0086479500    0.0010125100
  -0.0149963500    0.0041642500   -0.0067805000
   0.7751184300    0.1433395700    0.1114862000
   0.0060847600   -0.0051001100    0.0065833700
  -0.0316543700    0.0345418300   -0.0022179200
  -0.0275332000   -0.0238466300    0.0235469100
  -0.1810950600   -0.1115130600    0.0927400600
  -0.0310089100   -0.0218128500    0.0323335700
  -0.3646787000   -0.1249041700   -0.1781970100
   0.0350801300    0.0043879500    0.0147218700
  -0.1307468200    0.0858275200   -0.0717878100
  -0.0215734200    0.0235636400   -0.0234412500

3    
 -0.0012586774843446   0.0099204452663013   0.0000222869631077
   0.0025981600    0.0230395900    0.0038204600
  -0.0015763300   -0.0030319400   -0.0098568900
  -0.0370883700   -0.6799793500    0.1916509700
  -0.0027729300    0.0498535900    0.0284974600
  -0.0227333900    0.1446024800    0.0497189400
  -0.0019304200   -0.0538835800   -0.0136481700
   0.1418993900    0.2149357300   -0.1395181000
  -0.0214159800   -0.0349181600    0.0212043700
   0.0320459800    0.1033776100    0.0163482900
   0.0372591200   -0.0038916700    0.0099658100
  -0.1071492700    0.2301405300   -0.1312354100
  -0.0191359500    0.0097551700   -0.0269477300

3    
  0.0012586774843446  -0.0099204452663013  -0.0000222869631077
   0.0026536100   -0.0239935300   -0.0039468400
  -0.0036093200    0.0040207900    0.0100363800
   0.0352917000    0.6913319300   -0.2138080500
  -0.0063272000   -0.0587389800   -0.0171721900
   0.0286170000   -0.0907001400   -0.0410001800
  -0.0059059100    0.0037598800    0.0084314300
  -0.0814079900   -0.1651567100    0.0777465800
  -0.0338186900   -0.0125264500    0.0362875700
  -0.1181449400   -0.1166975800   -0.0581973100
   0.0483257200    0.0182549500    0.0320905900
   0.1536188800   -0.2861204100    0.1966886400
  -0.0192928600    0.0365662500   -0.0271566100

3    
 -0.0023236460927761  -0.0023417905993151   0.0094401634320856
   0.0006837800   -0.0103601700   -0.0101172400
  -0.0036301700   -0.0013634000    0.0228393300
   0.0976532000    0.3787722300   -0.6501404900
  -0.0028474000    0.0039085800    0.0468205200
   0.0053487900    0.0294069000    0.0362611400
  -0.0364469700   -0.0268582500    0.0319165300
  -0.1660362700   -0.1652366300    0.2040925000
  -0.0280282100   -0.0210400200    0.0177626700
   0.0046332900   -0.0081174400    0.0892331900
   0.0377312100    0.0010473000    0.0088555600
   0.1098823500   -0.2036413400    0.2388576300
  -0.0189436100    0.0234822600   -0.0363813500

3    
  0.0023236460927761   0.0023417905993151  -0.0094401634320856
   0.0045263700    0.0093858200    0.0100043900
  -0.0014334600    0.0023121100   -0.0227022300
  -0.1077405000   -0.3766948500    0.6404284200
  -0.0062736600   -0.0134231000   -0.0355859600
   0.0025898100    0.0224607700   -0.0305404100
   0.0279329800   -0.0233364000   -0.0363830600
   0.2339513600    0.2255706000   -0.2701165700
  -0.0272964800   -0.0264142100    0.0397704400
  -0.0896447600   -0.0059980500   -0.1299150000
   0.0479662300    0.0135325600    0.0331163600
  -0.0650472600    0.1496210800   -0.1803836500
  -0.0195306300    0.0229836900   -0.0176927200

5    
  0.0099998849312446   0.0000346132289983  -0.0000332157529605
   0.0001547700    0.0008058700    0.0015405100
  -0.0037415100    0.0005418400   -0.0015991100
   0.0398869200   -0.0167382700   -0.0006932900
   0.0192575400    0.0000242100   -0.0215137100
  -0.1168642900    0.0091671200    0.0848451200
   0.0465199500    0.0167959200   -0.0395503800
   0.0461506400    0.0222167100   -0.0558231700
  -0.0303597300   -0.0298095000    0.0276588700
  -0.0455832900    0.0077187700   -0.0105152500
   0.0411427600    0.0069611600    0.0235459900
   0.0234582100   -0.0424565600    0.0153605100
  -0.0200219700    0.0247727200   -0.0232560800

5    
 -0.0099998849312446  -0.0000346132289983   0.0000332157529605
   0.0050601800   -0.0017959000   -0.0016777900
  -0.0014069200    0.0004613400    0.0016797600
  -0.0310979500    0.0255281400   -0.0103913400
  -0.0280609600   -0.0099996700    0.0327648800
   0.1258063600    0.0428907900   -0.0825489900
  -0.0558822600   -0.0679412800    0.0374355500
   0.0095745900    0.0254610900   -0.0022375700
  -0.0251638400   -0.0176147700    0.0300967000
  -0.0399148500   -0.0219769000   -0.0314475600
   0.0445279600    0.0075820900    0.0184630300
   0.0150610600   -0.0042972800    0.0387110900
  -0.0185033700    0.0217023700   -0.0308477600

5    
 -0.0012586774843446   0.0099204452663013   0.0000222869631077
   0.0054178600   -0.0046462900   -0.0007292800
  -0.0041174200    0.0015481400    0.0007595300
  -0.0085965300    0.1220435700    0.0223481000
  -0.0085090600   -0.0339890200   -0.0001821000
   0.0022705300   -0.1946322600   -0.0367937400
   0.0310059200    0.0696958000   -0.0245684600
   0.0375305700    0.0169322900   -0.0407014000
  -0.0357132300   -0.0222199100    0.0395709100
  -0.0432378200    0.0034139800   -0.0018987900
   0.0425293900    0.0109206100    0.0259905100
   0.0021567700    0.0032069000    0.0402238100
  -0.0207370000    0.0277261900   -0.0240190900

5    
  0.0012586774843446  -0.0099204452663013  -0.0000222869631077
  -0.0002344300    0.0036842800    0.0006061200
  -0.0010499900   -0.0005863000   -0.0006262800
   0.0191967600   -0.1164484100   -0.0370981900
  -0.0002271100    0.0253329300    0.0115597500
   0.0035710800    0.2493790300    0.0460789700
  -0.0391997000   -0.1200595600    0.0192583000
   0.0177893100    0.0303794100   -0.0167397000
  -0.0195220400   -0.0252831700    0.0177586900
  -0.0425020500   -0.0179800400   -0.0404508900
   0.0429858400    0.0034294300    0.0159577800
   0.0370220300   -0.0504883400    0.0136924200
  -0.0178297000    0.0186407500   -0.0299969700

5    
 -0.0023236460927761  -0.0023417905993151   0.0094401634320856
   0.0027992900   -0.0012294800   -0.0008707800
  -0.0020215200    0.0009704000   -0.0006162300
   0.0027184600    0.0251104700    0.0315873800
  -0.0342369300   -0.0132104300    0.0386684100
   0.1172956100    0.0546652300   -0.1630905900
  -0.0644524300   -0.0851815700    0.0630960200
   0.0005635000    0.0266706100    0.0026767000
  -0.0282841200   -0.0145299100    0.0312391400
  -0.0459175000    0.0085100100   -0.0134012100
   0.0442218800    0.0069555000    0.0175976800
   0.0236132500   -0.0320390400    0.0235022800
  -0.0162994900    0.0233082200   -0.0303888000

5    
  0.0023236460927761   0.0023417905993151  -0.0094401634320856
   0.0024254300    0.0002621700    0.0007478100
  -0.0030791500    0.0000198500    0.0006534400
   0.0056098200   -0.0171711200   -0.0426317900
   0.0250167000    0.0028089600   -0.0277702100
  -0.1038036600   -0.0004041600    0.1640287300
   0.0510876300    0.0327221200   -0.0633252600
   0.0556925400    0.0211820700   -0.0609826700
  -0.0273767200   -0.0329031200    0.0266983900
  -0.0397559200   -0.0231762300   -0.0286446500
   0.0414673000    0.0076031400    0.0244783900
   0.0149427800   -0.0141763500    0.0304951400
  -0.0222267500    0.0232326500   -0.0237473200

7    
  0.0099998849312446   0.0000346132289983  -0.0000332157529605
   0.0016469800    0.0005909200    0.0011989700
  -0.0026250200   -0.0001330200   -0.0025736800
   0.2132617500    0.1416517500   -0.1290838400
  -0.0011720000    0.0021393600    0.0078935200
   0.0218272500    0.0373057500   -0.0187484200
  -0.0063564800   -0.0334771200   -0.0059484500
  -0.2178700200   -0.1376819700    0.1270440000
  -0.0231360500   -0.0243379200    0.0270625200
  -0.0159408100    0.0182772400   -0.0340762700
   0.0405180200    0.0051518700    0.0184925900
   0.0090894600   -0.0320779600    0.0347298200
  -0.0192430800    0.0225911000   -0.0259907600

7    
 -0.0099998849312446  -0.0000346132289983   0.0000332157529605
   0.0035404000   -0.0014681800   -0.0013636100
  -0.0024630800    0.0010479600    0.0025950400
  -0.2089786000   -0.1396932700    0.1238204700
  -0.0078485800   -0.0111626100    0.0036660200
  -0.0145858600    0.0126700700    0.0247903600
  -0.0010697400   -0.0164767900    0.0004887900
   0.2782356800    0.1925514500   -0.1911009700
  -0.0320472200   -0.0230193000    0.0302609000
  -0.0701324800   -0.0334513700   -0.0075595300
   0.0449956200    0.0092474600    0.0233491800
   0.0295512000   -0.0140098900    0.0191804800
  -0.0191973400    0.0237644600   -0.0281271300

7    
 -0.0012586774843446   0.0099204452663013   0.0000222869631077
   0.0061691500    0.0042678700    0.0022431400
  -0.0043177600    0.0029865600    0.0042079900
   0.1120920600    0.1932235300   -0.1076298700
  -0.0067734700   -0.0167992400    0.0050283900
  -0.0000613000    0.0165453400    0.0061857400
  -0.0094650400   -0.0232544000    0.0060409800
  -0.1011269000   -0.1868559000    0.0896594200
  -0.0288479000   -0.0188148900    0.0268215400
  -0.0278882100   -0.0060702300   -0.0283398700
   0.0443017400    0.0169330200    0.0224342000
   0.0351349900   -0.0086853400    0.0003073900
  -0.0192173800    0.0265236800   -0.0269590500

7    
  0.0012586774843446  -0.0099204452663013  -0.0000222869631077
  -0.0007273000   -0.0047147400   -0.0022108900
  -0.0008463300   -0.0019858300   -0.0040802700
  -0.1077618000   -0.1864285700    0.1000957000
  -0.0022619100    0.0077976400    0.0065700700
   0.0078001700    0.0336486700   -0.0009288000
   0.0019248600   -0.0269375200   -0.0115283800
   0.1610182700    0.2362250800   -0.1516552700
  -0.0263639300   -0.0285696000    0.0304953100
  -0.0578775500   -0.0081746400   -0.0134933300
   0.0412178300   -0.0026021000    0.0193230000
   0.0030999200   -0.0380586100    0.0545595300
  -0.0192222400    0.0198002100   -0.0271466800

7    
 -0.0023236460927761  -0.0023417905993151   0.0094401634320856
   0.0031856200    0.0020707800    0.0020402900
  -0.0041036900    0.0014923500   -0.0011279100
  -0.1994896500   -0.2016588500    0.2348555700
  -0.0082838200   -0.0109636400   -0.0083388000
  -0.0256830500    0.0091159100    0.0299608000
  -0.0029312600   -0.0129262300    0.0005112700
   0.2788648100    0.2572542100   -0.3051796500
  -0.0299587700   -0.0266056300    0.0358338800
  -0.0435217200   -0.0054813800   -0.0290574200
   0.0459544100    0.0096349000    0.0264502900
   0.0046970600   -0.0453067100    0.0378108900
  -0.0187299500    0.0233742900   -0.0237592000

7    
  0.0023236460927761   0.0023417905993151  -0.0094401634320856
   0.0019928100   -0.0030905500   -0.0022248600
  -0.0008437300   -0.0006504100    0.0010123100
   0.1962780100    0.1986444800   -0.2379544300
  -0.0006914000    0.0017678200    0.0198099100
   0.0323518900    0.0407917000   -0.0237167500
  -0.0046058400   -0.0369203400   -0.0060400100
  -0.2108041900   -0.1970904500    0.2388648100
  -0.0252746400   -0.0207982300    0.0215791200
  -0.0418531800   -0.0086950600   -0.0129770600
   0.0396201700    0.0047907100    0.0154273200
   0.0335804400   -0.0017512500    0.0166243500
  -0.0197503500    0.0230015700   -0.0304047100

9    
  0.0099998849312446   0.0000346132289983  -0.0000332157529605
   0.0020982700    0.0021389300   -0.0009309800
  -0.0022572500    0.0000869600    0.0017777400
   0.3261270700    0.1241621300    0.1552570400
   0.0031472800   -0.0091025500    0.0011441800
   0.0007679100    0.0241555400   -0.0014616200
  -0.0054839000   -0.0254915600   -0.0018415400
   0.0550445000    0.0426003500   -0.0181558300
  -0.0298272900   -0.0224010900    0.0318289300
  -0.4153001200   -0.1474549700   -0.2136598600
   0.0451349500    0.0065451100    0.0195753800
   0.0408538000   -0.0193947400    0.0513847800
  -0.0203052400    0.0241558700   -0.0249182400

9    
 -0.0099998849312446  -0.0000346132289983   0.0000332157529605
   0.0029810800   -0.0033570000    0.0008130100
  -0.0030210000    0.0009584500   -0.0018304500
  -0.3028100500   -0.1068703200   -0.1560481600
  -0.0122211500   -0.0000390300    0.0103519200
   0.0064927900    0.0256222200    0.0067834600
  -0.0020004700   -0.0245367400   -0.0036830700
   0.0006555900    0.0054949400   -0.0390324400
  -0.0254034800   -0.0250182800    0.0255509400
   0.3152477200    0.1247280300    0.1606151900
   0.0403674300    0.0078023000    0.0222428000
  -0.0021106700   -0.0269841300    0.0034436100
  -0.0181778000    0.0221995600   -0.0292068000

9    
 -0.0012586774843446   0.0099204452663013   0.0000222869631077
   0.0072263700    0.0046466400   -0.0033279200
  -0.0055735800    0.0028395300   -0.0018835300
   0.0776402400    0.1137512600    0.0322558800
  -0.0026983900   -0.0146242100   -0.0021336300
   0.0189511200    0.0378013500    0.0270149200
  -0.0038143200   -0.0212601500   -0.0024114200
   0.0499994700    0.0256229900   -0.0209878100
  -0.0293725000   -0.0143791500    0.0326385300
  -0.1320607500   -0.1363273400   -0.0683779600
   0.0418673500    0.0110611900    0.0258994100
  -0.0026235700   -0.0355556800    0.0077307000
  -0.0195414400    0.0264235800   -0.0264171800

9    
  0.0012586774843446  -0.0099204452663013  -0.0000222869631077
  -0.0023385400   -0.0060003100    0.0032805200
   0.0003781400   -0.0019419200    0.0020390600
  -0.0683963500   -0.1056956400   -0.0438312500
  -0.0063660900    0.0055411800    0.0137424100
  -0.0113640100    0.0124710000   -0.0208723200
  -0.0036007300   -0.0287656700   -0.0031857500
   0.0055621600    0.0217631000   -0.0364541500
  -0.0258467100   -0.0331200400    0.0246130200
   0.0460796800    0.1233519100    0.0260366400
   0.0437433500    0.0032800700    0.0159113300
   0.0410788900   -0.0108113300    0.0464796500
  -0.0189297800    0.0199276300   -0.0277591600

9    
 -0.0023236460927761  -0.0023417905993151   0.0094401634320856
  -0.0013115500   -0.0044830100    0.0042004300
   0.0016444900   -0.0022636500    0.0033091200
   0.0478310000    0.0015623400    0.1018174200
  -0.0011252800   -0.0106224800   -0.0042106800
   0.0107646600    0.0418782800    0.0131267900
  -0.0008741500   -0.0206935000   -0.0047268300
   0.0027946300    0.0098174200   -0.0464884100
  -0.0288744400   -0.0250609400    0.0321478900
  -0.1027005600   -0.0078638500   -0.1383441600
   0.0411194600    0.0109925500    0.0253583300
   0.0514532600   -0.0182810000    0.0344262600
  -0.0207215400    0.0250178500   -0.0206161700

9    
  0.0023236460927761   0.0023417905993151  -0.0094401634320856
   0.0064144400    0.0033781900   -0.0044109900
  -0.0070655100    0.0033171800   -0.0033921200
  -0.0397079600    0.0071484100   -0.1147793000
  -0.0079339800    0.0016917900    0.0158276000
  -0.0033015500    0.0083187400   -0.0075285900
  -0.0065543600   -0.0293043700   -0.0008257300
   0.0525444000    0.0377005700   -0.0108316600
  -0.0263203300   -0.0223330200    0.0251822100
   0.0177564300   -0.0063240300    0.0981845500
   0.0444401900    0.0033182900    0.0164506300
  -0.0125596800   -0.0281682100    0.0197056500
  -0.0177120900    0.0212564600   -0.0335822400

11   
  0.0099998849312446   0.0000346132289983  -0.0000332157529605
   0.0013866200   -0.0023904200   -0.0007116100
  -0.0046843700    0.0011587700   -0.0006770300
   0.1544776800   -0.1047243200    0.0933834400
  -0.0021783700   -0.0042665800    0.0067472200
   0.0079062100    0.0081065300    0.0042180900
  -0.0044897000   -0.0265366400   -0.0002313600
   0.0172825600    0.0386592500   -0.0428645900
  -0.0276540400   -0.0237324800    0.0292166500
  -0.0214532300   -0.0263775500    0.0130242400
   0.0417179900    0.0067505500    0.0189709500
  -0.1450398200    0.1118465600   -0.0955204400
  -0.0172715300    0.0215063300   -0.0255555500

11   
 -0.0099998849312446  -0.0000346132289983   0.0000332157529605
   0.0038983900    0.0013056500    0.0004577500
  -0.0005232200   -0.0002068900    0.0007790500
  -0.1460885600    0.1173234500   -0.1080192000
  -0.0068795100   -0.0048127300    0.0047813500
  -0.0004656600    0.0421134000    0.0014332500
  -0.0029112800   -0.0234248000   -0.0053620100
   0.0380143900    0.0086241100   -0.0143911800
  -0.0275832300   -0.0237113700    0.0281563000
  -0.0646226600    0.0123027900   -0.0558028500
   0.0438433200    0.0076100200    0.0229070300
   0.1845110900   -0.1619425900    0.1536424100
  -0.0211930700    0.0248189700   -0.0285819000

11   
 -0.0012586774843446   0.0099204452663013   0.0000222869631077
   0.0017934800   -0.0033727700   -0.0014386700
  -0.0028291900    0.0014133400    0.0016170600
  -0.1294917100    0.2672638500   -0.1759213600
  -0.0051700300   -0.0179863400    0.0024898000
  -0.0162050300    0.0520636100   -0.0054091700
  -0.0020961400   -0.0200980600   -0.0015535100
   0.0198276800    0.0354760700   -0.0489449100
  -0.0281967800   -0.0204009400    0.0295028800
  -0.0415334500   -0.0168119300   -0.0219456200
   0.0438995600    0.0106269300    0.0242467700
   0.1811634400   -0.3174257300    0.2274218500
  -0.0211618300    0.0292519700   -0.0300651400

11   
  0.0012586774843446  -0.0099204452663013  -0.0000222869631077
   0.0035492600    0.0022788800    0.0011925500
  -0.0023624500   -0.0004011300   -0.0014948800
   0.1308720700   -0.2489359700    0.1538065600
  -0.0038192800    0.0088798100    0.0090232400
   0.0229717800   -0.0012183400    0.0109862500
  -0.0053023900   -0.0298953500   -0.0040818400
   0.0353935600    0.0121997200   -0.0090067700
  -0.0270548400   -0.0270263300    0.0278804600
  -0.0438354400    0.0022087100   -0.0196955700
   0.0416926900    0.0037734100    0.0176264700
  -0.1348000700    0.2610134200   -0.1621929400
  -0.0173048900    0.0171231800   -0.0240435300

11   
 -0.0023236460927761  -0.0023417905993151   0.0094401634320856
   0.0014130400    0.0026766100    0.0047579100
  -0.0009392500   -0.0006419700    0.0098225700
   0.0888642300   -0.1676839900    0.2019449000
  -0.0084376100   -0.0017197900   -0.0039893100
  -0.0037563600    0.0342824100    0.0008812900
  -0.0003848000   -0.0224367700   -0.0053623200
   0.0395413200   -0.0073813400   -0.0141933300
  -0.0264226300   -0.0242537000    0.0319506500
  -0.0260856900   -0.0154251700   -0.0204880300
   0.0448012400    0.0073305000    0.0278335600
  -0.0907828500    0.1758039000   -0.2102717600
  -0.0178106400    0.0194493100   -0.0228861300

11   
  0.0023236460927761   0.0023417905993151  -0.0094401634320856
   0.0037746400   -0.0036970900   -0.0048901600
  -0.0040841800    0.0015369300   -0.0087497900
  -0.0855476700    0.1838736300   -0.2176107900
  -0.0006048800   -0.0072494200    0.0155991900
   0.0113718300    0.0154870400    0.0046998500
  -0.0071473500   -0.0275838000   -0.0001609300
   0.0155475200    0.0557324200   -0.0435898300
  -0.0287711400   -0.0231335800    0.0254240600
  -0.0596964000    0.0010650400   -0.0211778300
   0.0407181100    0.0070118600    0.0139810600
   0.1350782800   -0.2299101600    0.2676788700
  -0.0206387700    0.0268671300   -0.0312036900
