12   
36   

1    
  0.0100000000000000   0.0000000000000000   0.0000000000000000
  -0.0201750000   -0.0070013200    0.0012820400
   0.0024336700    0.0007374400   -0.0054085800
   0.0146341300   -0.0051143000    0.0014315200
   0.0132171100    0.0095384500    0.0037494600
   0.0007196100    0.0017652700    0.0020385400
  -0.0043171100   -0.0010661200   -0.0020347300
  -0.0012852100    0.0014416500   -0.0001009600
  -0.0003818800   -0.0007486100   -0.0004904200
  -0.0012291900    0.0049591600   -0.0019267500
   0.0002429000   -0.0039673100    0.0021164200
  -0.0030524200   -0.0021967900   -0.0067897300
  -0.0008066000    0.0016524800    0.0061331800

1    
 -0.0100000000000000   0.0000000000000000   0.0000000000000000
   0.0134518300    0.0040647000    0.0080809600
   0.0041157000    0.0019086100   -0.0035260900
  -0.0157473000   -0.0086794300   -0.0040710000
  -0.0120717200    0.0044156100   -0.0012913500
   0.0056473500   -0.0029225200    0.0017100500
  -0.0020179900    0.0021853500   -0.0017198900
   0.0010898900   -0.0030677500   -0.0019040100
   0.0007095400    0.0022670700    0.0023953500
   0.0005645900   -0.0021897900    0.0035731900
   0.0004812700    0.0013986900   -0.0039253600
   0.0008848600   -0.0019638000   -0.0038691800
   0.0028919900    0.0025832600    0.0045473400

1    
 -0.0012910713290048   0.0099163065111674   0.0000000000000000
  -0.0065418100   -0.0285500800    0.0089883400
   0.0027947600    0.0039196500   -0.0040888800
   0.0055062500    0.0163742900   -0.0041751300
  -0.0048715500    0.0029810600   -0.0025611400
   0.0047337500   -0.0048022000    0.0003916300
  -0.0030343300    0.0016998500   -0.0010782500
  -0.0002176900    0.0010987200    0.0023114900
  -0.0000835000    0.0033242700    0.0023213000
   0.0012267000    0.0047918300   -0.0003441700
   0.0003669800    0.0013706600   -0.0031791300
  -0.0018341500   -0.0055531700   -0.0033236900
   0.0019545800    0.0033451100    0.0047376400

1    
  0.0012910713290048  -0.0099163065111674   0.0000000000000000
   0.0001154500    0.0258813200    0.0002722000
   0.0037366100   -0.0012765300   -0.0048889400
  -0.0067076600   -0.0302583500    0.0016010900
   0.0059837300    0.0109802900    0.0051823400
   0.0016227800    0.0036668600    0.0033348700
  -0.0033192500   -0.0006096000   -0.0026881300
  -0.0001932100   -0.0031377800   -0.0044348700
   0.0003416100   -0.0017591200   -0.0003631700
  -0.0017091500   -0.0018251100    0.0019498100
   0.0003593200   -0.0040069600    0.0014555300
  -0.0003547600    0.0014432100   -0.0073669400
   0.0001245200    0.0009017700    0.0059462000

1    
 -0.0023067814067162  -0.0023747862593952   0.0094360558372562
  -0.0013930300    0.0103537900   -0.0275481600
   0.0027036000    0.0011301100   -0.0007683500
  -0.0069787600   -0.0094070400   -0.0101483900
   0.0052072600   -0.0012816100    0.0229126800
   0.0049276300   -0.0007203700    0.0016098800
  -0.0043993600    0.0012392100   -0.0029599900
   0.0010472100   -0.0003565400    0.0008279300
  -0.0013339000    0.0038981700   -0.0005577000
  -0.0009204700   -0.0029570300    0.0050243900
   0.0010428800   -0.0024888800    0.0009784200
  -0.0003405800   -0.0029734700   -0.0013730900
   0.0004375200    0.0035636700    0.0120023800

1    
  0.0023067814067162   0.0023747862593952  -0.0094360558372562
  -0.0053745100   -0.0130597800    0.0360962500
   0.0038144200    0.0015441000   -0.0081555000
   0.0058744100   -0.0045126600    0.0075306800
  -0.0039898200    0.0151376800   -0.0203132300
   0.0014314400   -0.0004237100    0.0021455200
  -0.0019726800   -0.0001113500   -0.0007662600
  -0.0012519600   -0.0011840200   -0.0028133500
   0.0017212600   -0.0023890700    0.0023813000
   0.0002592700    0.0057089900   -0.0033309500
  -0.0005149000   -0.0000513600   -0.0029173800
  -0.0017814900   -0.0012150200   -0.0093137200
   0.0017845700    0.0005561900   -0.0005433500

3    
  0.0100000000000000   0.0000000000000000   0.0000000000000000
   0.0119177300    0.0067604300    0.0033989300
   0.0158912700   -0.0025083500    0.0024593900
  -0.7506921000   -0.1347897100   -0.1053700000
  -0.0085865300    0.0067327600    0.0002454600
   0.0385910400   -0.0087545500    0.0067948700
   0.0202464400   -0.0009855200   -0.0270006200
   0.2096167300    0.1365067800   -0.1251107500
   0.0028644200   -0.0010192400   -0.0023565600
   0.2994753600    0.1083241200    0.1426509900
   0.0077754300    0.0017172100    0.0051984700
   0.1498645600   -0.1138182500    0.0971571100
   0.0030356600    0.0018343000    0.0019327000

3    
 -0.0100000000000000   0.0000000000000000   0.0000000000000000
  -0.0184376700   -0.0094963500    0.0055090000
  -0.0093648000    0.0051462100   -0.0115268000
   0.7587792000    0.1257434500    0.1167331000
   0.0096924300    0.0068446600    0.0022820800
  -0.0321403100    0.0083019100   -0.0033605000
  -0.0269285500    0.0020452400    0.0239089800
  -0.2049995500   -0.1308528800    0.1166803700
  -0.0027636600    0.0025413000    0.0044719800
  -0.3148701000   -0.1141297000   -0.1521389400
  -0.0068631300   -0.0042488000   -0.0067791500
  -0.1510968000    0.1056436800   -0.1044698400
  -0.0010070700    0.0024612800    0.0086897200

3    
 -0.0012910713290048   0.0099163065111674   0.0000000000000000
  -0.0034252500    0.0211840100    0.0084056400
   0.0041656200   -0.0018386100   -0.0142978300
  -0.0374044200   -0.6804954900    0.1940840200
   0.0016618600    0.0599452400    0.0235545700
  -0.0225396100    0.1177292700    0.0465494300
  -0.0016056400   -0.0282354300   -0.0122711200
   0.1100684200    0.1873648800   -0.1090369400
   0.0065322400   -0.0100857500   -0.0065607300
   0.0718264500    0.1118338400    0.0368904000
  -0.0051129500   -0.0122940100   -0.0116336800
  -0.1254915500    0.2459644800   -0.1612116900
   0.0013248300   -0.0110724400    0.0055279200

3    
  0.0012910713290048  -0.0099163065111674   0.0000000000000000
  -0.0030358800   -0.0238030700    0.0005566700
   0.0023529100    0.0044901000    0.0053676500
   0.0257400800    0.6688931200   -0.2069638100
  -0.0005892800   -0.0459521400   -0.0212599700
   0.0273738600   -0.1150186000   -0.0397699000
  -0.0051826100    0.0292955700    0.0089038300
  -0.1051534100   -0.1866504100    0.1027095300
  -0.0063391400    0.0116226700    0.0086916600
  -0.0731752300   -0.1082321500   -0.0352654500
   0.0059175200    0.0096706500    0.0101571100
   0.1313206400   -0.2595957200    0.1616562700
   0.0007705400    0.0152799900    0.0052164100

3    
 -0.0023067814067162  -0.0023747862593952   0.0094360558372562
  -0.0045864700   -0.0112421300   -0.0049998900
   0.0021715500   -0.0003086800    0.0173726600
   0.0902634500    0.3626496700   -0.6384984600
   0.0016863800    0.0151529900    0.0397690600
   0.0048370700    0.0017894100    0.0344982600
  -0.0353727100   -0.0005405400    0.0321158100
  -0.1894613100   -0.1857441500    0.2285458800
  -0.0001822700    0.0032728300   -0.0093492400
   0.0447122400   -0.0003084600    0.1101302900
  -0.0043233300   -0.0073483800   -0.0123384500
   0.0888115000   -0.1796748200    0.2059745600
   0.0014439000    0.0023022500   -0.0032204700

3    
  0.0023067814067162   0.0023747862593952  -0.0094360558372562
  -0.0019170000    0.0086001800    0.0139734400
   0.0044700400    0.0029287600   -0.0263408000
  -0.1104385500   -0.3830919100    0.6379678300
  -0.0006230800   -0.0018837300   -0.0376027400
   0.0020507800   -0.0012146200   -0.0306631800
   0.0279398800    0.0015568600   -0.0347896900
   0.2018349900    0.1969283500   -0.2392624300
   0.0002690400   -0.0017532500    0.0115340200
  -0.0449930800    0.0031482400   -0.1073863900
   0.0052618600    0.0049544700    0.0108043000
  -0.0844555100    0.1677547200   -0.2121955500
   0.0006006400    0.0020719200    0.0139611900

5    
  0.0100000000000000   0.0000000000000000   0.0000000000000000
  -0.0057095800   -0.0000968200    0.0060428500
   0.0021353200    0.0013215100   -0.0060830800
   0.0347045700   -0.0276195900    0.0039186900
   0.0242832700    0.0113219400   -0.0254317200
  -0.1170397800   -0.0157673100    0.0821151400
   0.0471838400    0.0417137200   -0.0379501800
   0.0183410900   -0.0024246400   -0.0276619000
  -0.0026527600   -0.0053426400    0.0000447100
  -0.0031387000    0.0161142800    0.0110475900
  -0.0013529000   -0.0015635400    0.0017158500
   0.0032432900   -0.0212036900   -0.0168629100
   0.0000023500    0.0035467800    0.0091049700

5    
 -0.0100000000000000   0.0000000000000000   0.0000000000000000
  -0.0007860100   -0.0025720400    0.0029176300
   0.0044263500    0.0013416800   -0.0029338500
  -0.0360583200    0.0135086900   -0.0059698200
  -0.0229262800    0.0015718000    0.0276507600
   0.1249645400    0.0167370800   -0.0816509400
  -0.0555480500   -0.0416639300    0.0376859000
  -0.0180499200    0.0010993300    0.0249525400
   0.0025578100    0.0069015300    0.0023546800
   0.0024185100   -0.0133994500   -0.0094989700
   0.0022475600   -0.0008807000   -0.0032198800
  -0.0052535900    0.0165515200    0.0060719100
   0.0020073900    0.0008044700    0.0016400400

5    
 -0.0012910713290048   0.0099163065111674   0.0000000000000000
  -0.0006220700   -0.0054260300    0.0037121000
   0.0018051100    0.0022550400   -0.0037246500
  -0.0128410700    0.1093351100    0.0250984400
  -0.0038161800   -0.0225602500   -0.0041840300
   0.0018389100   -0.2170002600   -0.0366881400
   0.0311629900    0.0944509200   -0.0226223300
   0.0095941100   -0.0076186300   -0.0127293600
  -0.0079870600    0.0022997300    0.0118492100
  -0.0008257700    0.0118747600    0.0196550300
   0.0002099500    0.0023947800    0.0040646200
  -0.0181980700    0.0235828000    0.0075251500
  -0.0003208500    0.0064120300    0.0080439700

5    
  0.0012910713290048  -0.0099163065111674   0.0000000000000000
  -0.0058961700    0.0027589000    0.0052619400
   0.0047448200    0.0003356000   -0.0052373900
   0.0132403300   -0.1265005600   -0.0306688900
   0.0052803300    0.0366072900    0.0064700600
   0.0028077600    0.2208854900    0.0440792700
  -0.0382325800   -0.0936032300    0.0191088900
  -0.0096573000    0.0059476900    0.0106018200
   0.0081599100   -0.0008981800   -0.0098384000
  -0.0001744500   -0.0095204700   -0.0185128700
   0.0005811300   -0.0050431200   -0.0056011900
   0.0168617000   -0.0287985200   -0.0184033800
   0.0022845200   -0.0021708800    0.0027401400

5    
 -0.0023067814067162  -0.0023747862593952   0.0094360558372562
  -0.0030778800   -0.0020406600    0.0036719800
   0.0038038500    0.0018442600   -0.0052509200
  -0.0022607300    0.0114029100    0.0352857800
  -0.0286234200   -0.0011448200    0.0334024800
   0.1152512800    0.0297867000   -0.1585415200
  -0.0635861600   -0.0585214000    0.0621110000
  -0.0269178700    0.0023936100    0.0296390300
  -0.0005426900    0.0098793900    0.0031053200
  -0.0035404600    0.0167221300    0.0078347200
   0.0019211300   -0.0015454800   -0.0041416900
   0.0036410000   -0.0110775500   -0.0090988100
   0.0039319500    0.0023009200    0.0019826300

5    
  0.0023067814067162   0.0023747862593952  -0.0094360558372562
  -0.0034059500   -0.0006002600    0.0052983000
   0.0028042900    0.0008093900   -0.0038046900
   0.0004106600   -0.0262554000   -0.0372883000
   0.0295853700    0.0136363800   -0.0315303800
  -0.1028773800   -0.0269110900    0.1577853300
   0.0513395100    0.0573790900   -0.0606615100
   0.0277207300   -0.0035507800   -0.0325731700
   0.0003192600   -0.0083244000   -0.0005313800
   0.0026511000   -0.0144042100   -0.0063612700
  -0.0010068200   -0.0008819300    0.0026978100
  -0.0056148300    0.0069751500   -0.0017622700
  -0.0019259500    0.0021280600    0.0087315300

7    
  0.0100000000000000   0.0000000000000000   0.0000000000000000
  -0.0044629400   -0.0014642800    0.0053357600
   0.0027443900    0.0009899900   -0.0063711300
   0.2044225900    0.1251661800   -0.1206750200
   0.0033814700    0.0137730300    0.0034128900
   0.0212650400    0.0114801600   -0.0193851200
  -0.0058075000   -0.0078763600   -0.0050455000
  -0.2389809700   -0.1561788600    0.1500350600
   0.0041000400    0.0001832400   -0.0007224200
   0.0253812400    0.0268413200   -0.0121505000
  -0.0018050700   -0.0034139400   -0.0031923100
  -0.0113796600   -0.0110093800    0.0023151400
   0.0011413600    0.0015088700    0.0064431600

7    
 -0.0100000000000000   0.0000000000000000   0.0000000000000000
  -0.0020590700   -0.0011100500    0.0035949500
   0.0038662000    0.0015829000   -0.0026860700
  -0.2101858700   -0.1458763600    0.1242942900
  -0.0022410100    0.0000734500   -0.0008936300
  -0.0150814700   -0.0126707200    0.0235624300
  -0.0005702400    0.0090803600    0.0014434700
   0.2438660900    0.1619647900   -0.1586076300
  -0.0038648800    0.0014236500    0.0027098400
  -0.0266956600   -0.0250312500    0.0140212900
   0.0025460400    0.0008196600    0.0015282500
   0.0094766900    0.0070228600   -0.0132685100
   0.0009431700    0.0027207200    0.0043013200

7    
 -0.0012910713290048   0.0099163065111674   0.0000000000000000
  -0.0007682900    0.0013346500    0.0060236500
   0.0018368600    0.0037217700   -0.0007280900
   0.1029004500    0.1788632300   -0.1006096000
  -0.0015606300   -0.0051382400    0.0003670100
  -0.0007632000   -0.0090708200    0.0054082600
  -0.0089696000    0.0023956700    0.0068780700
  -0.1243333000   -0.2044885400    0.1154583800
  -0.0010446800    0.0052895700   -0.0004489700
   0.0148583500    0.0020918500   -0.0064390600
   0.0020586400    0.0074594900    0.0007590900
   0.0147206000    0.0121389900   -0.0321700900
   0.0010648000    0.0054023800    0.0055013500

7    
  0.0012910713290048  -0.0099163065111674   0.0000000000000000
  -0.0055375400   -0.0035067300    0.0030763700
   0.0047030600   -0.0010307800   -0.0082541300
  -0.1086233700   -0.1947650500    0.1020479500
   0.0027076400    0.0189364300    0.0021534600
   0.0074384700    0.0081200100   -0.0019968700
   0.0024997700   -0.0013853000   -0.0105255400
   0.1287169200    0.2046714400   -0.1219592800
   0.0012338300   -0.0037085700    0.0024425300
  -0.0159000000    0.0006377500    0.0080725800
  -0.0012567700   -0.0100625300   -0.0024669900
  -0.0169845200   -0.0167782800    0.0222149300
   0.0010025100   -0.0011283700    0.0051950000

7    
 -0.0023067814067162  -0.0023747862593952   0.0094360558372562
  -0.0026879500    0.0014406700    0.0067411900
   0.0024689700    0.0018796300   -0.0065398200
  -0.2003586600   -0.2086533900    0.2362478200
  -0.0028510000    0.0001853600   -0.0123046200
  -0.0258079500   -0.0160711400    0.0283580500
  -0.0022774700    0.0126095000    0.0010380800
   0.2454828300    0.2280924500   -0.2728932200
  -0.0023185700   -0.0017387600    0.0078296100
  -0.0012128300    0.0029014400   -0.0072344600
   0.0034982900    0.0013298100    0.0044410300
  -0.0153524800   -0.0244104700    0.0059167700
   0.0014168200    0.0024348800    0.0083995700

7    
  0.0023067814067162   0.0023747862593952  -0.0094360558372562
  -0.0038445200   -0.0041174000    0.0021849600
   0.0042502300    0.0006638600   -0.0026376100
   0.1870671500    0.1830467200   -0.2302300600
   0.0040499600    0.0133955900    0.0147008400
   0.0314160700    0.0148112500   -0.0239749200
  -0.0041920800   -0.0112703300   -0.0047220600
  -0.2328329200   -0.2171484300    0.2618028100
   0.0024700500    0.0032881800   -0.0057401200
   0.0005559200   -0.0001158400    0.0086793800
  -0.0026536500   -0.0038594100   -0.0060355600
   0.0131152100    0.0194299200   -0.0162779000
   0.0005985800    0.0018758800    0.0022502300

9    
  0.0100000000000000   0.0000000000000000   0.0000000000000000
  -0.0041969000   -0.0000810700    0.0039709400
   0.0031102700    0.0013421500   -0.0037926600
   0.3135987600    0.1103839500    0.1551767500
   0.0079097700    0.0022135700   -0.0032327500
   0.0003305000   -0.0013880900   -0.0024054300
  -0.0049932700    0.0001508400   -0.0008521400
   0.0262222000    0.0184995500    0.0092515100
  -0.0020680100    0.0021293200    0.0041059500
  -0.3626275100   -0.1361918300   -0.1863256500
   0.0024297000   -0.0019604600   -0.0021327400
   0.0203347000    0.0016053100    0.0189217400
  -0.0000502000    0.0032967600    0.0073144900

9    
 -0.0100000000000000   0.0000000000000000   0.0000000000000000
  -0.0023892300   -0.0027851800    0.0050090200
   0.0033633500    0.0013734600   -0.0053431500
  -0.3007325500   -0.1159610500   -0.1471265700
  -0.0067620500    0.0114311200    0.0056610100
   0.0059096100   -0.0000105400    0.0058828400
  -0.0013767200    0.0009980600   -0.0028239300
  -0.0258725500   -0.0193629600   -0.0111205600
   0.0022772400   -0.0006000900   -0.0020471700
   0.3471101800    0.1304645500    0.1769552700
  -0.0015962300   -0.0006363200    0.0004906500
  -0.0220484800   -0.0059019800   -0.0289077000
   0.0021174300    0.0009909300    0.0033702900

9    
 -0.0012910713290048   0.0099163065111674   0.0000000000000000
   0.0002726600    0.0021333800    0.0018464900
   0.0006081600    0.0036535800   -0.0059083100
   0.0700999300    0.1024655800    0.0356971800
   0.0025746200   -0.0031428500   -0.0065640900
   0.0182549400    0.0122558200    0.0257926200
  -0.0032719200    0.0043245400   -0.0015063000
   0.0224372400    0.0008829900    0.0065384200
  -0.0017239200    0.0090629200    0.0049274500
  -0.0870064500   -0.1248449100   -0.0463472600
  -0.0004825200    0.0024464600    0.0039834200
  -0.0224452400   -0.0145636700   -0.0243269900
   0.0006825100    0.0053261700    0.0058673500

9    
  0.0012910713290048  -0.0099163065111674   0.0000000000000000
  -0.0070421600   -0.0050649200    0.0071816500
   0.0059086600   -0.0010463200   -0.0030349700
  -0.0710114700   -0.1171081200   -0.0381666300
  -0.0014472900    0.0168670200    0.0090915100
  -0.0117386700   -0.0131344300   -0.0214968900
  -0.0030646400   -0.0031357200   -0.0022444300
  -0.0222773300   -0.0024289900   -0.0086460200
   0.0019137900   -0.0075716700   -0.0029874400
   0.0856504600    0.1283699800    0.0474578100
   0.0013565200   -0.0050331200   -0.0056507600
   0.0203845600    0.0103159300    0.0137158300
   0.0013675800   -0.0010296400    0.0047803500

9    
 -0.0023067814067162  -0.0023747862593952   0.0094360558372562
  -0.0065423800   -0.0040165100    0.0083961400
   0.0066578100   -0.0010233400   -0.0022684800
   0.0407114400   -0.0104201200    0.1056756200
   0.0038139000    0.0008437000   -0.0083240400
   0.0100135300    0.0160757700    0.0116548400
  -0.0003632900    0.0047201900   -0.0038228100
  -0.0245263200   -0.0145324000   -0.0186154800
  -0.0011425700   -0.0003519100    0.0042613000
  -0.0579835600   -0.0004383400   -0.1135354000
  -0.0011019300    0.0023937400    0.0034549300
   0.0308623000    0.0028700000    0.0020049900
  -0.0003989300    0.0038792200    0.0111184000

9    
  0.0023067814067162   0.0023747862593952  -0.0094360558372562
  -0.0000429400    0.0012745900    0.0004989000
  -0.0003432200    0.0037447300   -0.0068912900
  -0.0427368100   -0.0036291300   -0.1095000000
  -0.0026882800    0.0130041700    0.0108577500
  -0.0036161800   -0.0170493600   -0.0079133400
  -0.0059966200   -0.0035316100    0.0001110200
   0.0244692500    0.0131099200    0.0166141100
   0.0013442800    0.0019039200   -0.0022532000
   0.0576774400    0.0031009700    0.1167751700
   0.0019409200   -0.0050287600   -0.0051201700
  -0.0324755400   -0.0072348000   -0.0126808400
   0.0024677100    0.0003353500   -0.0004981100

11   
  0.0100000000000000   0.0000000000000000   0.0000000000000000
  -0.0052230700   -0.0023570200    0.0044569900
   0.0013696200    0.0019986400   -0.0054958200
   0.1495095900   -0.1148798400    0.0980860100
   0.0025626700    0.0074034100    0.0022976000
   0.0074008200   -0.0175835500    0.0035275600
  -0.0042053800   -0.0008289100    0.0006170600
  -0.0104951400    0.0137921500   -0.0149023600
   0.0001632900    0.0008279400    0.0015059700
   0.0204951100   -0.0173881800    0.0343570000
  -0.0006876600   -0.0017691700   -0.0026807900
  -0.1634980000    0.1299909900   -0.1283331200
   0.0026081300    0.0007935300    0.0065639000

11   
 -0.0100000000000000   0.0000000000000000   0.0000000000000000
  -0.0012106300   -0.0003621900    0.0044081000
   0.0051412700    0.0006353300   -0.0034921700
  -0.1514141100    0.1048019600   -0.1037635100
  -0.0014284300    0.0063062100    0.0001530600
  -0.0010166400    0.0166505800    0.0002661000
  -0.0021194300    0.0020452500   -0.0043695100
   0.0104016500   -0.0154655400    0.0129806400
   0.0000136700    0.0006963200    0.0005336600
  -0.0218202100    0.0202717500   -0.0336432800
   0.0015247900   -0.0008182800    0.0010721700
   0.1624806600   -0.1382296900    0.1217465000
  -0.0005525900    0.0034683200    0.0041082400

11   
 -0.0012910713290048   0.0099163065111674   0.0000000000000000
  -0.0030536000   -0.0047663300    0.0025991800
   0.0030410400    0.0024112000   -0.0025869000
  -0.1326267100    0.2504571000   -0.1686333000
   0.0000316100   -0.0064718400   -0.0021905800
  -0.0164000900    0.0257888300   -0.0064348700
  -0.0016693500    0.0052347600   -0.0006618800
  -0.0076791500    0.0107711400   -0.0213687300
  -0.0005204200    0.0039425300    0.0019110200
   0.0007023000   -0.0083510800   -0.0002316000
   0.0017028500    0.0020959800    0.0023891100
   0.1569794900   -0.2889429900    0.1924643500
  -0.0005079700    0.0078306900    0.0027442000

11   
  0.0012910713290048  -0.0099163065111674   0.0000000000000000
  -0.0033478000    0.0020144400    0.0062658600
   0.0034734000    0.0002641400   -0.0063790000
   0.1239359100   -0.2551351300    0.1557424500
   0.0011544700    0.0201334900    0.0046188900
   0.0221045400   -0.0261436000    0.0101536500
  -0.0046663100   -0.0040488800   -0.0031287100
   0.0074884600   -0.0120747600    0.0187531400
   0.0006770600   -0.0024088100    0.0001329300
  -0.0013173500    0.0107118300    0.0020792200
  -0.0008657400   -0.0046644400   -0.0040112100
  -0.1511924900    0.2749025200   -0.1921909600
   0.0025558400   -0.0035507900    0.0079637500

11   
 -0.0023067814067162  -0.0023747862593952   0.0094360558372562
  -0.0041539400    0.0014828400    0.0089624500
   0.0046264400    0.0003700900    0.0020311600
   0.0830564600   -0.1763244600    0.2058465900
  -0.0030212500    0.0097457600   -0.0076384600
  -0.0040256600    0.0085017400   -0.0001638900
   0.0001936400    0.0028275900   -0.0045510200
   0.0117366600   -0.0318089800    0.0138296000
   0.0012735500    0.0003281100    0.0040446900
   0.0163034800   -0.0066408000    0.0013158200
   0.0022211400   -0.0012417000    0.0053368100
  -0.1103716900    0.1940120400   -0.2380977400
   0.0021611700   -0.0012522400    0.0090839800

11   
  0.0023067814067162   0.0023747862593952  -0.0094360558372562
  -0.0023659700   -0.0041611200   -0.0000199600
   0.0020497400    0.0021915000   -0.0102242200
  -0.0899570900    0.1696447200   -0.2126334000
   0.0041432400    0.0041737200    0.0101838900
   0.0105960500   -0.0098911800    0.0038621600
  -0.0066644000   -0.0016725200    0.0008669600
  -0.0120729700    0.0311783800   -0.0162990400
  -0.0010336100    0.0012739600   -0.0020388600
  -0.0173067500    0.0092612800    0.0005057400
  -0.0014676400   -0.0013893100   -0.0070429100
   0.1141551100   -0.2060666300    0.2311777100
  -0.0000757100    0.0054572100    0.0016619300
