nqpoint: 1      
natom:   12     
reciprocal_lattice:
- [   0.20920502,   0.02723782,   0.05799820 ] # a*
- [   0.00000000,   0.18088610,   0.04552387 ] # b*
- [   0.00000000,   0.00000000,   0.17398864 ] # c*
phonon:
- q-position: [    0.0000000,    0.0000000,    0.0000000 ]
  dynamical_matrix:
  - [    0.0731343355,   -0.0000000000,    0.0240950359,    0.0000000000,    0.0147799265,    0.0000000000,    0.0036582142,    0.0000000000,    0.0025445711,    0.0000000000,    0.0040942634,    0.0000000000,   -0.0559254132,    0.0000000000,   -0.0065602530,    0.0000000000,   -0.0101195469,    0.0000000000,   -0.0465408619,    0.0000000000,   -0.0094279925,    0.0000000000,   -0.0092693196,    0.0000000000,    0.0128414729,    0.0000000000,   -0.0122080362,    0.0000000000,   -0.0008469581,    0.0000000000,    0.0059833958,    0.0000000000,    0.0084915506,    0.0000000000,    0.0008300516,    0.0000000000,    0.0062295282,    0.0000000000,   -0.0117394903,    0.0000000000,   -0.0046571570,    0.0000000000,    0.0028850105,    0.0000000000,    0.0078891256,    0.0000000000,    0.0075760045,    0.0000000000,    0.0046945962,    0.0000000000,   -0.0186276371,    0.0000000000,    0.0143811780,    0.0000000000,    0.0006406196,    0.0000000000,    0.0140053635,    0.0000000000,   -0.0157020814,    0.0000000000,    0.0103626943,    0.0000000000,    0.0005979469,    0.0000000000,    0.0076296693,    0.0000000000,    0.0097376780,    0.0000000000,    0.0024217568,    0.0000000000,   -0.0041206980,    0.0000000000 ]
  - [    0.0240950359,   -0.0000000000,    0.1225144105,   -0.0000000000,   -0.0172197100,    0.0000000000,    0.0025445711,    0.0000000000,   -0.0110648198,    0.0000000000,   -0.0012147456,    0.0000000000,   -0.0299524487,    0.0000000000,   -0.0874501609,    0.0000000000,    0.0094033354,    0.0000000000,    0.0140961991,    0.0000000000,    0.0136077752,    0.0000000000,    0.0131780057,    0.0000000000,   -0.0064796763,    0.0000000000,    0.0206765173,    0.0000000000,    0.0076163771,    0.0000000000,    0.0000419519,    0.0000000000,   -0.0050037605,    0.0000000000,   -0.0041201291,    0.0000000000,    0.0008970199,    0.0000000000,   -0.0126383530,    0.0000000000,   -0.0183260794,    0.0000000000,    0.0015169268,    0.0000000000,   -0.0123172173,    0.0000000000,   -0.0060765879,    0.0000000000,   -0.0070797216,    0.0000000000,   -0.0198327802,    0.0000000000,    0.0078996184,    0.0000000000,    0.0000711992,    0.0000000000,   -0.0123312085,    0.0000000000,    0.0101102464,    0.0000000000,    0.0052132410,    0.0000000000,    0.0184885894,    0.0000000000,   -0.0096519056,    0.0000000000,   -0.0035550783,    0.0000000000,   -0.0061076312,    0.0000000000,    0.0026327234,    0.0000000000 ]
  - [    0.0147799265,   -0.0000000000,   -0.0172197100,   -0.0000000000,    0.1459798529,   -0.0000000000,    0.0040942634,    0.0000000000,   -0.0012147456,    0.0000000000,   -0.0163329348,    0.0000000000,    0.0038754673,    0.0000000000,   -0.0140669090,    0.0000000000,    0.0344155144,    0.0000000000,   -0.0257715685,    0.0000000000,    0.0331675473,    0.0000000000,   -0.0832883673,    0.0000000000,   -0.0081519936,    0.0000000000,    0.0030244809,    0.0000000000,    0.0032249530,    0.0000000000,    0.0081940083,    0.0000000000,   -0.0029088032,    0.0000000000,    0.0052471536,    0.0000000000,   -0.0045789396,    0.0000000000,   -0.0083440087,    0.0000000000,   -0.0158119495,    0.0000000000,    0.0095591440,    0.0000000000,   -0.0185451485,    0.0000000000,    0.0084473032,    0.0000000000,    0.0026598692,    0.0000000000,    0.0143883880,    0.0000000000,   -0.0175652237,    0.0000000000,   -0.0040894729,    0.0000000000,    0.0070413110,    0.0000000000,   -0.0120277205,    0.0000000000,   -0.0001419744,    0.0000000000,    0.0096396623,    0.0000000000,   -0.0224648964,    0.0000000000,    0.0052038334,    0.0000000000,   -0.0092713865,    0.0000000000,   -0.0349648380,    0.0000000000 ]
  - [    0.0036582142,   -0.0000000000,    0.0025445711,   -0.0000000000,    0.0040942634,   -0.0000000000,    0.0731343355,   -0.0000000000,    0.0240950359,    0.0000000000,    0.0147799265,    0.0000000000,   -0.0465408619,    0.0000000000,   -0.0094279925,    0.0000000000,   -0.0092693196,    0.0000000000,   -0.0559254132,    0.0000000000,   -0.0065602530,    0.0000000000,   -0.0101195469,    0.0000000000,    0.0059833958,    0.0000000000,    0.0084915506,    0.0000000000,    0.0008300516,    0.0000000000,    0.0128414729,    0.0000000000,   -0.0122080362,    0.0000000000,   -0.0008469581,    0.0000000000,    0.0028850105,    0.0000000000,    0.0078891256,    0.0000000000,    0.0075760045,    0.0000000000,    0.0062295282,    0.0000000000,   -0.0117394903,    0.0000000000,   -0.0046571570,    0.0000000000,    0.0006406196,    0.0000000000,    0.0140053635,    0.0000000000,   -0.0157020814,    0.0000000000,    0.0046945962,    0.0000000000,   -0.0186276371,    0.0000000000,    0.0143811780,    0.0000000000,    0.0097376780,    0.0000000000,    0.0024217568,    0.0000000000,   -0.0041206980,    0.0000000000,    0.0103626943,    0.0000000000,    0.0005979469,    0.0000000000,    0.0076296693,    0.0000000000 ]
  - [    0.0025445711,   -0.0000000000,   -0.0110648198,   -0.0000000000,   -0.0012147456,   -0.0000000000,    0.0240950359,   -0.0000000000,    0.1225144105,   -0.0000000000,   -0.0172197100,    0.0000000000,    0.0140961991,    0.0000000000,    0.0136077752,    0.0000000000,    0.0131780057,    0.0000000000,   -0.0299524487,    0.0000000000,   -0.0874501609,    0.0000000000,    0.0094033354,    0.0000000000,    0.0000419519,    0.0000000000,   -0.0050037605,    0.0000000000,   -0.0041201291,    0.0000000000,   -0.0064796763,    0.0000000000,    0.0206765173,    0.0000000000,    0.0076163771,    0.0000000000,    0.0015169268,    0.0000000000,   -0.0123172173,    0.0000000000,   -0.0060765879,    0.0000000000,    0.0008970199,    0.0000000000,   -0.0126383530,    0.0000000000,   -0.0183260794,    0.0000000000,    0.0000711992,    0.0000000000,   -0.0123312085,    0.0000000000,    0.0101102464,    0.0000000000,   -0.0070797216,    0.0000000000,   -0.0198327802,    0.0000000000,    0.0078996184,    0.0000000000,   -0.0035550783,    0.0000000000,   -0.0061076312,    0.0000000000,    0.0026327234,    0.0000000000,    0.0052132410,    0.0000000000,    0.0184885894,    0.0000000000,   -0.0096519056,    0.0000000000 ]
  - [    0.0040942634,   -0.0000000000,   -0.0012147456,   -0.0000000000,   -0.0163329348,   -0.0000000000,    0.0147799265,   -0.0000000000,   -0.0172197100,   -0.0000000000,    0.1459798529,   -0.0000000000,   -0.0257715685,    0.0000000000,    0.0331675473,    0.0000000000,   -0.0832883673,    0.0000000000,    0.0038754673,    0.0000000000,   -0.0140669090,    0.0000000000,    0.0344155144,    0.0000000000,    0.0081940083,    0.0000000000,   -0.0029088032,    0.0000000000,    0.0052471536,    0.0000000000,   -0.0081519936,    0.0000000000,    0.0030244809,    0.0000000000,    0.0032249530,    0.0000000000,    0.0095591440,    0.0000000000,   -0.0185451485,    0.0000000000,    0.0084473032,    0.0000000000,   -0.0045789396,    0.0000000000,   -0.0083440087,    0.0000000000,   -0.0158119495,    0.0000000000,   -0.0040894729,    0.0000000000,    0.0070413110,    0.0000000000,   -0.0120277205,    0.0000000000,    0.0026598692,    0.0000000000,    0.0143883880,    0.0000000000,   -0.0175652237,    0.0000000000,    0.0052038334,    0.0000000000,   -0.0092713865,    0.0000000000,   -0.0349648380,    0.0000000000,   -0.0001419744,    0.0000000000,    0.0096396623,    0.0000000000,   -0.0224648964,    0.0000000000 ]
  - [   -0.0559254132,   -0.0000000000,   -0.0299524487,   -0.0000000000,    0.0038754673,   -0.0000000000,   -0.0465408619,   -0.0000000000,    0.0140961991,   -0.0000000000,   -0.0257715685,   -0.0000000000,    2.3537678154,   -0.0000000000,    0.4060025921,    0.0000000000,    0.3460976289,    0.0000000000,    0.0285029783,    0.0000000000,    0.0001727915,    0.0000000000,    0.0031851768,    0.0000000000,   -0.1561749225,    0.0000000000,    0.0376875751,    0.0000000000,   -0.0224312471,    0.0000000000,   -0.1041773730,    0.0000000000,    0.0066860072,    0.0000000000,    0.1123819921,    0.0000000000,   -0.9152606462,    0.0000000000,   -0.5901217848,    0.0000000000,    0.5339358556,    0.0000000000,   -0.0124178577,    0.0000000000,    0.0078728668,    0.0000000000,    0.0150844348,    0.0000000000,   -1.3561576738,    0.0000000000,   -0.4908840175,    0.0000000000,   -0.6504987078,    0.0000000000,   -0.0323514676,    0.0000000000,   -0.0131700983,    0.0000000000,   -0.0264422455,    0.0000000000,   -0.6643334218,    0.0000000000,    0.4845600195,    0.0000000000,   -0.4451350355,    0.0000000000,   -0.0088673771,    0.0000000000,    0.0013683119,    0.0000000000,    0.0149318279,    0.0000000000 ]
  - [   -0.0065602530,   -0.0000000000,   -0.0874501609,   -0.0000000000,   -0.0140669090,   -0.0000000000,   -0.0094279925,   -0.0000000000,    0.0136077752,   -0.0000000000,    0.0331675473,   -0.0000000000,    0.4060025921,   -0.0000000000,    2.1747980876,   -0.0000000000,   -0.5856302714,    0.0000000000,    0.0001727915,    0.0000000000,   -0.1665002080,    0.0000000000,   -0.0700357054,    0.0000000000,    0.0907882597,    0.0000000000,   -0.5132049668,    0.0000000000,   -0.1950676779,    0.0000000000,   -0.0215224781,    0.0000000000,    0.1289280687,    0.0000000000,    0.0617660483,    0.0000000000,   -0.5983040496,    0.0000000000,   -0.9095511137,    0.0000000000,    0.5410134082,    0.0000000000,   -0.0302565107,    0.0000000000,    0.0495027640,    0.0000000000,    0.0359625361,    0.0000000000,   -0.4995111140,    0.0000000000,   -0.5538446594,    0.0000000000,   -0.2455031486,    0.0000000000,    0.0203479632,    0.0000000000,    0.0471878664,    0.0000000000,    0.0451836369,    0.0000000000,    0.4850750790,    0.0000000000,   -1.0623764541,    0.0000000000,    0.6606781117,    0.0000000000,   -0.0024089651,    0.0000000000,    0.0588781369,    0.0000000000,    0.0012237201,    0.0000000000 ]
  - [   -0.0101195469,   -0.0000000000,    0.0094033354,   -0.0000000000,    0.0344155144,   -0.0000000000,   -0.0092693196,   -0.0000000000,    0.0131780057,   -0.0000000000,   -0.0832883673,   -0.0000000000,    0.3460976289,   -0.0000000000,   -0.5856302714,   -0.0000000000,    2.0466924152,   -0.0000000000,    0.0031851768,    0.0000000000,   -0.0700357054,    0.0000000000,   -0.1447139084,    0.0000000000,   -0.0218349756,    0.0000000000,   -0.1269878768,    0.0000000000,   -0.2070478343,    0.0000000000,    0.1172107149,    0.0000000000,    0.0389838036,    0.0000000000,   -0.1134766995,    0.0000000000,    0.5409328791,    0.0000000000,    0.5218122773,    0.0000000000,   -0.8278208771,    0.0000000000,   -0.0095532365,    0.0000000000,    0.0026611134,    0.0000000000,    0.0615611930,    0.0000000000,   -0.6672047752,    0.0000000000,   -0.2513313499,    0.0000000000,   -0.7297409950,    0.0000000000,    0.0196391319,    0.0000000000,    0.0374221036,    0.0000000000,    0.0590540124,    0.0000000000,   -0.4456187878,    0.0000000000,    0.6639743095,    0.0000000000,   -0.9207974592,    0.0000000000,   -0.0047457535,    0.0000000000,    0.0145757236,    0.0000000000,    0.0441765608,    0.0000000000 ]
  - [   -0.0465408619,   -0.0000000000,    0.0140961991,   -0.0000000000,   -0.0257715685,   -0.0000000000,   -0.0559254132,   -0.0000000000,   -0.0299524487,   -0.0000000000,    0.0038754673,   -0.0000000000,    0.0285029783,   -0.0000000000,    0.0001727915,   -0.0000000000,    0.0031851768,   -0.0000000000,    2.3537678154,   -0.0000000000,    0.4060025921,    0.0000000000,    0.3460976289,    0.0000000000,   -0.1041773730,    0.0000000000,    0.0066860072,    0.0000000000,    0.1123819921,    0.0000000000,   -0.1561749225,    0.0000000000,    0.0376875751,    0.0000000000,   -0.0224312471,    0.0000000000,   -0.0124178577,    0.0000000000,    0.0078728668,    0.0000000000,    0.0150844348,    0.0000000000,   -0.9152606462,    0.0000000000,   -0.5901217848,    0.0000000000,    0.5339358556,    0.0000000000,   -0.0323514676,    0.0000000000,   -0.0131700983,    0.0000000000,   -0.0264422455,    0.0000000000,   -1.3561576738,    0.0000000000,   -0.4908840175,    0.0000000000,   -0.6504987078,    0.0000000000,   -0.0088673771,    0.0000000000,    0.0013683119,    0.0000000000,    0.0149318279,    0.0000000000,   -0.6643334218,    0.0000000000,    0.4845600195,    0.0000000000,   -0.4451350355,    0.0000000000 ]
  - [   -0.0094279925,   -0.0000000000,    0.0136077752,   -0.0000000000,    0.0331675473,   -0.0000000000,   -0.0065602530,   -0.0000000000,   -0.0874501609,   -0.0000000000,   -0.0140669090,   -0.0000000000,    0.0001727915,   -0.0000000000,   -0.1665002080,   -0.0000000000,   -0.0700357054,   -0.0000000000,    0.4060025921,   -0.0000000000,    2.1747980876,   -0.0000000000,   -0.5856302714,    0.0000000000,   -0.0215224781,    0.0000000000,    0.1289280687,    0.0000000000,    0.0617660483,    0.0000000000,    0.0907882597,    0.0000000000,   -0.5132049668,    0.0000000000,   -0.1950676779,    0.0000000000,   -0.0302565107,    0.0000000000,    0.0495027640,    0.0000000000,    0.0359625361,    0.0000000000,   -0.5983040496,    0.0000000000,   -0.9095511137,    0.0000000000,    0.5410134082,    0.0000000000,    0.0203479632,    0.0000000000,    0.0471878664,    0.0000000000,    0.0451836369,    0.0000000000,   -0.4995111140,    0.0000000000,   -0.5538446594,    0.0000000000,   -0.2455031486,    0.0000000000,   -0.0024089651,    0.0000000000,    0.0588781369,    0.0000000000,    0.0012237201,    0.0000000000,    0.4850750790,    0.0000000000,   -1.0623764541,    0.0000000000,    0.6606781117,    0.0000000000 ]
  - [   -0.0092693196,   -0.0000000000,    0.0131780057,   -0.0000000000,   -0.0832883673,   -0.0000000000,   -0.0101195469,   -0.0000000000,    0.0094033354,   -0.0000000000,    0.0344155144,   -0.0000000000,    0.0031851768,   -0.0000000000,   -0.0700357054,   -0.0000000000,   -0.1447139084,   -0.0000000000,    0.3460976289,   -0.0000000000,   -0.5856302714,   -0.0000000000,    2.0466924152,   -0.0000000000,    0.1172107149,    0.0000000000,    0.0389838036,    0.0000000000,   -0.1134766995,    0.0000000000,   -0.0218349756,    0.0000000000,   -0.1269878768,    0.0000000000,   -0.2070478343,    0.0000000000,   -0.0095532365,    0.0000000000,    0.0026611134,    0.0000000000,    0.0615611930,    0.0000000000,    0.5409328791,    0.0000000000,    0.5218122773,    0.0000000000,   -0.8278208771,    0.0000000000,    0.0196391319,    0.0000000000,    0.0374221036,    0.0000000000,    0.0590540124,    0.0000000000,   -0.6672047752,    0.0000000000,   -0.2513313499,    0.0000000000,   -0.7297409950,    0.0000000000,   -0.0047457535,    0.0000000000,    0.0145757236,    0.0000000000,    0.0441765608,    0.0000000000,   -0.4456187878,    0.0000000000,    0.6639743095,    0.0000000000,   -0.9207974592,    0.0000000000 ]
  - [    0.0128414729,   -0.0000000000,   -0.0064796763,   -0.0000000000,   -0.0081519936,   -0.0000000000,    0.0059833958,   -0.0000000000,    0.0000419519,   -0.0000000000,    0.0081940083,   -0.0000000000,   -0.1561749225,   -0.0000000000,    0.0907882597,   -0.0000000000,   -0.0218349756,   -0.0000000000,   -0.1041773730,   -0.0000000000,   -0.0215224781,   -0.0000000000,    0.1172107149,   -0.0000000000,    0.7562918609,   -0.0000000000,    0.1015500644,    0.0000000000,   -0.5118849355,    0.0000000000,   -0.3210491956,    0.0000000000,   -0.2605320832,    0.0000000000,    0.2364736584,    0.0000000000,   -0.1136566371,    0.0000000000,    0.0110358246,    0.0000000000,    0.1644805384,    0.0000000000,    0.0163253466,    0.0000000000,    0.0382705223,    0.0000000000,    0.0072561193,    0.0000000000,    0.0174011525,    0.0000000000,   -0.0922442457,    0.0000000000,   -0.0641530133,    0.0000000000,    0.0112770010,    0.0000000000,    0.0021293496,    0.0000000000,   -0.0153919943,    0.0000000000,   -0.0264296474,    0.0000000000,    0.1179558174,    0.0000000000,    0.0716731802,    0.0000000000,    0.0063924116,    0.0000000000,   -0.0085831036,    0.0000000000,   -0.0233058176,    0.0000000000 ]
  - [   -0.0122080362,   -0.0000000000,    0.0206765173,   -0.0000000000,    0.0030244809,   -0.0000000000,    0.0084915506,   -0.0000000000,   -0.0050037605,   -0.0000000000,   -0.0029088032,   -0.0000000000,    0.0376875751,   -0.0000000000,   -0.5132049668,   -0.0000000000,   -0.1269878768,   -0.0000000000,    0.0066860072,   -0.0000000000,    0.1289280687,   -0.0000000000,    0.0389838036,   -0.0000000000,    0.1015500644,   -0.0000000000,    1.3932193302,   -0.0000000000,    0.1877971309,    0.0000000000,   -0.2605320832,    0.0000000000,   -0.6265760817,    0.0000000000,    0.1623749172,    0.0000000000,   -0.0754758999,    0.0000000000,    0.0442691325,    0.0000000000,    0.0949628915,    0.0000000000,    0.0529994402,    0.0000000000,   -0.0050563136,    0.0000000000,   -0.0674018470,    0.0000000000,    0.0043093773,    0.0000000000,   -0.0794460875,    0.0000000000,   -0.1286485958,    0.0000000000,    0.0026411945,    0.0000000000,   -0.0231644489,    0.0000000000,   -0.0324910278,    0.0000000000,    0.1070095401,    0.0000000000,   -0.1497265135,    0.0000000000,   -0.0724135627,    0.0000000000,    0.0090043518,    0.0000000000,   -0.0281263313,    0.0000000000,   -0.0197646506,    0.0000000000 ]
  - [   -0.0008469581,   -0.0000000000,    0.0076163771,   -0.0000000000,    0.0032249530,   -0.0000000000,    0.0008300516,   -0.0000000000,   -0.0041201291,   -0.0000000000,    0.0052471536,   -0.0000000000,   -0.0224312471,   -0.0000000000,   -0.1950676779,   -0.0000000000,   -0.2070478343,   -0.0000000000,    0.1123819921,   -0.0000000000,    0.0617660483,   -0.0000000000,   -0.1134766995,   -0.0000000000,   -0.5118849355,   -0.0000000000,    0.1877971309,   -0.0000000000,    0.9698156811,   -0.0000000000,    0.2364736584,    0.0000000000,    0.1623749172,    0.0000000000,   -0.3079805822,    0.0000000000,    0.1341877856,    0.0000000000,   -0.0058683822,    0.0000000000,   -0.1419681295,    0.0000000000,    0.0202273176,    0.0000000000,   -0.0522121711,    0.0000000000,   -0.0272514555,    0.0000000000,    0.0258694118,    0.0000000000,   -0.1456433906,    0.0000000000,   -0.0951116554,    0.0000000000,   -0.0062226771,    0.0000000000,   -0.0031192969,    0.0000000000,    0.0107218716,    0.0000000000,   -0.0102004601,    0.0000000000,    0.0509523684,    0.0000000000,    0.0236341564,    0.0000000000,   -0.0155903891,    0.0000000000,   -0.0097794848,    0.0000000000,    0.0116721960,    0.0000000000 ]
  - [    0.0059833958,   -0.0000000000,    0.0000419519,   -0.0000000000,    0.0081940083,   -0.0000000000,    0.0128414729,   -0.0000000000,   -0.0064796763,   -0.0000000000,   -0.0081519936,   -0.0000000000,   -0.1041773730,   -0.0000000000,   -0.0215224781,   -0.0000000000,    0.1172107149,   -0.0000000000,   -0.1561749225,   -0.0000000000,    0.0907882597,   -0.0000000000,   -0.0218349756,   -0.0000000000,   -0.3210491956,   -0.0000000000,   -0.2605320832,   -0.0000000000,    0.2364736584,   -0.0000000000,    0.7562918609,   -0.0000000000,    0.1015500644,    0.0000000000,   -0.5118849355,    0.0000000000,    0.0163253466,    0.0000000000,    0.0382705223,    0.0000000000,    0.0072561193,    0.0000000000,   -0.1136566371,    0.0000000000,    0.0110358246,    0.0000000000,    0.1644805384,    0.0000000000,    0.0112770010,    0.0000000000,    0.0021293496,    0.0000000000,   -0.0153919943,    0.0000000000,    0.0174011525,    0.0000000000,   -0.0922442457,    0.0000000000,   -0.0641530133,    0.0000000000,    0.0063924116,    0.0000000000,   -0.0085831036,    0.0000000000,   -0.0233058176,    0.0000000000,   -0.0264296474,    0.0000000000,    0.1179558174,    0.0000000000,    0.0716731802,    0.0000000000 ]
  - [    0.0084915506,   -0.0000000000,   -0.0050037605,   -0.0000000000,   -0.0029088032,   -0.0000000000,   -0.0122080362,   -0.0000000000,    0.0206765173,   -0.0000000000,    0.0030244809,   -0.0000000000,    0.0066860072,   -0.0000000000,    0.1289280687,   -0.0000000000,    0.0389838036,   -0.0000000000,    0.0376875751,   -0.0000000000,   -0.5132049668,   -0.0000000000,   -0.1269878768,   -0.0000000000,   -0.2605320832,   -0.0000000000,   -0.6265760817,   -0.0000000000,    0.1623749172,   -0.0000000000,    0.1015500644,   -0.0000000000,    1.3932193302,   -0.0000000000,    0.1877971309,    0.0000000000,    0.0529994402,    0.0000000000,   -0.0050563136,    0.0000000000,   -0.0674018470,    0.0000000000,   -0.0754758999,    0.0000000000,    0.0442691325,    0.0000000000,    0.0949628915,    0.0000000000,    0.0026411945,    0.0000000000,   -0.0231644489,    0.0000000000,   -0.0324910278,    0.0000000000,    0.0043093773,    0.0000000000,   -0.0794460875,    0.0000000000,   -0.1286485958,    0.0000000000,    0.0090043518,    0.0000000000,   -0.0281263313,    0.0000000000,   -0.0197646506,    0.0000000000,    0.1070095401,    0.0000000000,   -0.1497265135,    0.0000000000,   -0.0724135627,    0.0000000000 ]
  - [    0.0008300516,   -0.0000000000,   -0.0041201291,   -0.0000000000,    0.0052471536,   -0.0000000000,   -0.0008469581,   -0.0000000000,    0.0076163771,   -0.0000000000,    0.0032249530,   -0.0000000000,    0.1123819921,   -0.0000000000,    0.0617660483,   -0.0000000000,   -0.1134766995,   -0.0000000000,   -0.0224312471,   -0.0000000000,   -0.1950676779,   -0.0000000000,   -0.2070478343,   -0.0000000000,    0.2364736584,   -0.0000000000,    0.1623749172,   -0.0000000000,   -0.3079805822,   -0.0000000000,   -0.5118849355,   -0.0000000000,    0.1877971309,   -0.0000000000,    0.9698156811,   -0.0000000000,    0.0202273176,    0.0000000000,   -0.0522121711,    0.0000000000,   -0.0272514555,    0.0000000000,    0.1341877856,    0.0000000000,   -0.0058683822,    0.0000000000,   -0.1419681295,    0.0000000000,   -0.0062226771,    0.0000000000,   -0.0031192969,    0.0000000000,    0.0107218716,    0.0000000000,    0.0258694118,    0.0000000000,   -0.1456433906,    0.0000000000,   -0.0951116554,    0.0000000000,   -0.0155903891,    0.0000000000,   -0.0097794848,    0.0000000000,    0.0116721960,    0.0000000000,   -0.0102004601,    0.0000000000,    0.0509523684,    0.0000000000,    0.0236341564,    0.0000000000 ]
  - [    0.0062295282,   -0.0000000000,    0.0008970199,   -0.0000000000,   -0.0045789396,   -0.0000000000,    0.0028850105,   -0.0000000000,    0.0015169268,   -0.0000000000,    0.0095591440,   -0.0000000000,   -0.9152606462,   -0.0000000000,   -0.5983040496,   -0.0000000000,    0.5409328791,   -0.0000000000,   -0.0124178577,   -0.0000000000,   -0.0302565107,   -0.0000000000,   -0.0095532365,   -0.0000000000,   -0.1136566371,   -0.0000000000,   -0.0754758999,   -0.0000000000,    0.1341877856,   -0.0000000000,    0.0163253466,   -0.0000000000,    0.0529994402,   -0.0000000000,    0.0202273176,   -0.0000000000,    1.5089536483,   -0.0000000000,    0.9940915756,    0.0000000000,   -0.9648197683,    0.0000000000,   -0.0248913084,    0.0000000000,    0.0039081833,    0.0000000000,    0.0107460606,    0.0000000000,   -0.1627743072,    0.0000000000,   -0.1621109227,    0.0000000000,    0.0817294866,    0.0000000000,    0.0135885721,    0.0000000000,    0.0132313553,    0.0000000000,    0.0148191661,    0.0000000000,    0.0652417278,    0.0000000000,    0.0563279865,    0.0000000000,   -0.0487104817,    0.0000000000,   -0.0005434735,    0.0000000000,    0.0037500729,    0.0000000000,   -0.0067572084,    0.0000000000 ]
  - [   -0.0117394903,   -0.0000000000,   -0.0126383530,   -0.0000000000,   -0.0083440087,   -0.0000000000,    0.0078891256,   -0.0000000000,   -0.0123172173,   -0.0000000000,   -0.0185451485,   -0.0000000000,   -0.5901217848,   -0.0000000000,   -0.9095511137,   -0.0000000000,    0.5218122773,   -0.0000000000,    0.0078728668,   -0.0000000000,    0.0495027640,   -0.0000000000,    0.0026611134,   -0.0000000000,    0.0110358246,   -0.0000000000,    0.0442691325,   -0.0000000000,   -0.0058683822,   -0.0000000000,    0.0382705223,   -0.0000000000,   -0.0050563136,   -0.0000000000,   -0.0522121711,   -0.0000000000,    0.9940915756,   -0.0000000000,    1.4189112348,   -0.0000000000,   -0.8741170927,    0.0000000000,    0.0039081833,    0.0000000000,   -0.0278528781,    0.0000000000,    0.0105478017,    0.0000000000,   -0.1182242858,    0.0000000000,   -0.0257658498,    0.0000000000,    0.0562501045,    0.0000000000,   -0.0086039186,    0.0000000000,   -0.0535161484,    0.0000000000,   -0.0081667451,    0.0000000000,   -0.0914330707,    0.0000000000,   -0.0838493444,    0.0000000000,    0.1650960918,    0.0000000000,   -0.0003441370,    0.0000000000,   -0.0200791470,    0.0000000000,   -0.0019279615,    0.0000000000 ]
  - [   -0.0046571570,   -0.0000000000,   -0.0183260794,   -0.0000000000,   -0.0158119495,   -0.0000000000,    0.0075760045,   -0.0000000000,   -0.0060765879,   -0.0000000000,    0.0084473032,   -0.0000000000,    0.5339358556,   -0.0000000000,    0.5410134082,   -0.0000000000,   -0.8278208771,   -0.0000000000,    0.0150844348,   -0.0000000000,    0.0359625361,   -0.0000000000,    0.0615611930,   -0.0000000000,    0.1644805384,   -0.0000000000,    0.0949628915,   -0.0000000000,   -0.1419681295,   -0.0000000000,    0.0072561193,   -0.0000000000,   -0.0674018470,   -0.0000000000,   -0.0272514555,   -0.0000000000,   -0.9648197683,   -0.0000000000,   -0.8741170927,   -0.0000000000,    1.3151463162,   -0.0000000000,    0.0107460606,    0.0000000000,    0.0105478017,    0.0000000000,   -0.0396744323,    0.0000000000,   -0.0636606633,    0.0000000000,   -0.0561151219,    0.0000000000,    0.0869362580,    0.0000000000,   -0.0192318176,    0.0000000000,   -0.0274314748,    0.0000000000,   -0.0331750552,    0.0000000000,    0.0871711933,    0.0000000000,    0.1378353337,    0.0000000000,   -0.0438379010,    0.0000000000,   -0.0029848078,    0.0000000000,   -0.0059902402,    0.0000000000,   -0.0224326355,    0.0000000000 ]
  - [    0.0028850105,   -0.0000000000,    0.0015169268,   -0.0000000000,    0.0095591440,   -0.0000000000,    0.0062295282,   -0.0000000000,    0.0008970199,   -0.0000000000,   -0.0045789396,   -0.0000000000,   -0.0124178577,   -0.0000000000,   -0.0302565107,   -0.0000000000,   -0.0095532365,   -0.0000000000,   -0.9152606462,   -0.0000000000,   -0.5983040496,   -0.0000000000,    0.5409328791,   -0.0000000000,    0.0163253466,   -0.0000000000,    0.0529994402,   -0.0000000000,    0.0202273176,   -0.0000000000,   -0.1136566371,   -0.0000000000,   -0.0754758999,   -0.0000000000,    0.1341877856,   -0.0000000000,   -0.0248913084,   -0.0000000000,    0.0039081833,   -0.0000000000,    0.0107460606,   -0.0000000000,    1.5089536483,   -0.0000000000,    0.9940915756,    0.0000000000,   -0.9648197683,    0.0000000000,    0.0135885721,    0.0000000000,    0.0132313553,    0.0000000000,    0.0148191661,    0.0000000000,   -0.1627743072,    0.0000000000,   -0.1621109227,    0.0000000000,    0.0817294866,    0.0000000000,   -0.0005434735,    0.0000000000,    0.0037500729,    0.0000000000,   -0.0067572084,    0.0000000000,    0.0652417278,    0.0000000000,    0.0563279865,    0.0000000000,   -0.0487104817,    0.0000000000 ]
  - [    0.0078891256,   -0.0000000000,   -0.0123172173,   -0.0000000000,   -0.0185451485,   -0.0000000000,   -0.0117394903,   -0.0000000000,   -0.0126383530,   -0.0000000000,   -0.0083440087,   -0.0000000000,    0.0078728668,   -0.0000000000,    0.0495027640,   -0.0000000000,    0.0026611134,   -0.0000000000,   -0.5901217848,   -0.0000000000,   -0.9095511137,   -0.0000000000,    0.5218122773,   -0.0000000000,    0.0382705223,   -0.0000000000,   -0.0050563136,   -0.0000000000,   -0.0522121711,   -0.0000000000,    0.0110358246,   -0.0000000000,    0.0442691325,   -0.0000000000,   -0.0058683822,   -0.0000000000,    0.0039081833,   -0.0000000000,   -0.0278528781,   -0.0000000000,    0.0105478017,   -0.0000000000,    0.9940915756,   -0.0000000000,    1.4189112348,   -0.0000000000,   -0.8741170927,    0.0000000000,   -0.0086039186,    0.0000000000,   -0.0535161484,    0.0000000000,   -0.0081667451,    0.0000000000,   -0.1182242858,    0.0000000000,   -0.0257658498,    0.0000000000,    0.0562501045,    0.0000000000,   -0.0003441370,    0.0000000000,   -0.0200791470,    0.0000000000,   -0.0019279615,    0.0000000000,   -0.0914330707,    0.0000000000,   -0.0838493444,    0.0000000000,    0.1650960918,    0.0000000000 ]
  - [    0.0075760045,   -0.0000000000,   -0.0060765879,   -0.0000000000,    0.0084473032,   -0.0000000000,   -0.0046571570,   -0.0000000000,   -0.0183260794,   -0.0000000000,   -0.0158119495,   -0.0000000000,    0.0150844348,   -0.0000000000,    0.0359625361,   -0.0000000000,    0.0615611930,   -0.0000000000,    0.5339358556,   -0.0000000000,    0.5410134082,   -0.0000000000,   -0.8278208771,   -0.0000000000,    0.0072561193,   -0.0000000000,   -0.0674018470,   -0.0000000000,   -0.0272514555,   -0.0000000000,    0.1644805384,   -0.0000000000,    0.0949628915,   -0.0000000000,   -0.1419681295,   -0.0000000000,    0.0107460606,   -0.0000000000,    0.0105478017,   -0.0000000000,   -0.0396744323,   -0.0000000000,   -0.9648197683,   -0.0000000000,   -0.8741170927,   -0.0000000000,    1.3151463162,   -0.0000000000,   -0.0192318176,    0.0000000000,   -0.0274314748,    0.0000000000,   -0.0331750552,    0.0000000000,   -0.0636606633,    0.0000000000,   -0.0561151219,    0.0000000000,    0.0869362580,    0.0000000000,   -0.0029848078,    0.0000000000,   -0.0059902402,    0.0000000000,   -0.0224326355,    0.0000000000,    0.0871711933,    0.0000000000,    0.1378353337,    0.0000000000,   -0.0438379010,    0.0000000000 ]