nqpoint: 1      
natom:   12     
reciprocal_lattice:
- [   0.21255036,   0.02683528,   0.05897508 ] # a*
- [  -0.00048497,   0.18373302,   0.04545868 ] # b*
- [   0.00058235,  -0.00031924,   0.17498998 ] # c*
phonon:
- q-position: [    0.0000000,    0.0000000,    0.0000000 ]
  dynamical_matrix:
  - [    0.0838642157,   -0.0000000000,    0.0290501357,    0.0000000000,    0.0136209083,    0.0000000000,    0.0034937101,    0.0000000000,    0.0025370933,    0.0000000000,    0.0039302431,    0.0000000000,   -0.0574251643,    0.0000000000,   -0.0071578246,    0.0000000000,   -0.0084143770,    0.0000000000,   -0.0457050783,    0.0000000000,   -0.0095581182,    0.0000000000,   -0.0093136860,    0.0000000000,    0.0128830123,    0.0000000000,   -0.0132098691,    0.0000000000,   -0.0011181906,    0.0000000000,    0.0060922665,    0.0000000000,    0.0088041436,    0.0000000000,    0.0008112804,    0.0000000000,    0.0048839897,    0.0000000000,   -0.0174858902,    0.0000000000,   -0.0064019524,    0.0000000000,    0.0003559223,    0.0000000000,    0.0091572711,    0.0000000000,    0.0113639532,    0.0000000000,    0.0023929433,    0.0000000000,   -0.0248607119,    0.0000000000,    0.0157871651,    0.0000000000,   -0.0021860771,    0.0000000000,    0.0154070685,    0.0000000000,   -0.0207548963,    0.0000000000,    0.0064832278,    0.0000000000,    0.0054332708,    0.0000000000,    0.0094943088,    0.0000000000,    0.0107672183,    0.0000000000,    0.0025921334,    0.0000000000,   -0.0053376330,    0.0000000000 ]
  - [    0.0290501357,   -0.0000000000,    0.1442642914,   -0.0000000000,   -0.0175624317,    0.0000000000,    0.0025370933,    0.0000000000,   -0.0108529358,    0.0000000000,   -0.0015266937,    0.0000000000,   -0.0295443524,    0.0000000000,   -0.0910465351,    0.0000000000,    0.0086588975,    0.0000000000,    0.0135531430,    0.0000000000,    0.0147988530,    0.0000000000,    0.0141922843,    0.0000000000,   -0.0068190658,    0.0000000000,    0.0210899228,    0.0000000000,    0.0076703357,    0.0000000000,   -0.0002161747,    0.0000000000,   -0.0055848759,    0.0000000000,   -0.0040408714,    0.0000000000,   -0.0053754455,    0.0000000000,   -0.0242253098,    0.0000000000,   -0.0215403917,    0.0000000000,    0.0030970283,    0.0000000000,   -0.0126205696,    0.0000000000,   -0.0082740986,    0.0000000000,   -0.0141865181,    0.0000000000,   -0.0297465619,    0.0000000000,    0.0108600343,    0.0000000000,    0.0023319911,    0.0000000000,   -0.0122514793,    0.0000000000,    0.0129575663,    0.0000000000,    0.0095233120,    0.0000000000,    0.0161342550,    0.0000000000,   -0.0112522981,    0.0000000000,   -0.0035200337,    0.0000000000,   -0.0051934568,    0.0000000000,    0.0038773235,    0.0000000000 ]
  - [    0.0136209083,   -0.0000000000,   -0.0175624317,   -0.0000000000,    0.1736334430,   -0.0000000000,    0.0039302431,    0.0000000000,   -0.0015266937,    0.0000000000,   -0.0167194379,    0.0000000000,    0.0042687452,    0.0000000000,   -0.0139513791,    0.0000000000,    0.0368457076,    0.0000000000,   -0.0254243643,    0.0000000000,    0.0339123421,    0.0000000000,   -0.0866943483,    0.0000000000,   -0.0083350443,    0.0000000000,    0.0024679958,    0.0000000000,    0.0030461822,    0.0000000000,    0.0086252813,    0.0000000000,   -0.0025332118,    0.0000000000,    0.0050212456,    0.0000000000,   -0.0066848432,    0.0000000000,   -0.0124764027,    0.0000000000,   -0.0165461959,    0.0000000000,    0.0135606986,    0.0000000000,   -0.0200484779,    0.0000000000,    0.0042614003,    0.0000000000,    0.0044365748,    0.0000000000,    0.0179964601,    0.0000000000,   -0.0182599293,    0.0000000000,   -0.0094811058,    0.0000000000,    0.0091806286,    0.0000000000,   -0.0186006987,    0.0000000000,    0.0029695568,    0.0000000000,    0.0073692385,    0.0000000000,   -0.0241222723,    0.0000000000,    0.0036640755,    0.0000000000,   -0.0075705040,    0.0000000000,   -0.0522977509,    0.0000000000 ]
  - [    0.0034937101,   -0.0000000000,    0.0025370933,   -0.0000000000,    0.0039302431,   -0.0000000000,    0.0838642157,   -0.0000000000,    0.0290501357,    0.0000000000,    0.0136209083,    0.0000000000,   -0.0457050783,    0.0000000000,   -0.0095581182,    0.0000000000,   -0.0093136860,    0.0000000000,   -0.0574251643,    0.0000000000,   -0.0071578246,    0.0000000000,   -0.0084143770,    0.0000000000,    0.0060922665,    0.0000000000,    0.0088041436,    0.0000000000,    0.0008112804,    0.0000000000,    0.0128830123,    0.0000000000,   -0.0132098691,    0.0000000000,   -0.0011181906,    0.0000000000,    0.0003559223,    0.0000000000,    0.0091572711,    0.0000000000,    0.0113639532,    0.0000000000,    0.0048839897,    0.0000000000,   -0.0174858902,    0.0000000000,   -0.0064019524,    0.0000000000,   -0.0021860771,    0.0000000000,    0.0154070685,    0.0000000000,   -0.0207548963,    0.0000000000,    0.0023929433,    0.0000000000,   -0.0248607119,    0.0000000000,    0.0157871651,    0.0000000000,    0.0107672183,    0.0000000000,    0.0025921334,    0.0000000000,   -0.0053376330,    0.0000000000,    0.0064832278,    0.0000000000,    0.0054332708,    0.0000000000,    0.0094943088,    0.0000000000 ]
  - [    0.0025370933,   -0.0000000000,   -0.0108529358,   -0.0000000000,   -0.0015266937,   -0.0000000000,    0.0290501357,   -0.0000000000,    0.1442642914,   -0.0000000000,   -0.0175624317,    0.0000000000,    0.0135531430,    0.0000000000,    0.0147988530,    0.0000000000,    0.0141922843,    0.0000000000,   -0.0295443524,    0.0000000000,   -0.0910465351,    0.0000000000,    0.0086588975,    0.0000000000,   -0.0002161747,    0.0000000000,   -0.0055848759,    0.0000000000,   -0.0040408714,    0.0000000000,   -0.0068190658,    0.0000000000,    0.0210899228,    0.0000000000,    0.0076703357,    0.0000000000,    0.0030970283,    0.0000000000,   -0.0126205696,    0.0000000000,   -0.0082740986,    0.0000000000,   -0.0053754455,    0.0000000000,   -0.0242253098,    0.0000000000,   -0.0215403917,    0.0000000000,    0.0023319911,    0.0000000000,   -0.0122514793,    0.0000000000,    0.0129575663,    0.0000000000,   -0.0141865181,    0.0000000000,   -0.0297465619,    0.0000000000,    0.0108600343,    0.0000000000,   -0.0035200337,    0.0000000000,   -0.0051934568,    0.0000000000,    0.0038773235,    0.0000000000,    0.0095233120,    0.0000000000,    0.0161342550,    0.0000000000,   -0.0112522981,    0.0000000000 ]
  - [    0.0039302431,   -0.0000000000,   -0.0015266937,   -0.0000000000,   -0.0167194379,   -0.0000000000,    0.0136209083,   -0.0000000000,   -0.0175624317,   -0.0000000000,    0.1736334430,   -0.0000000000,   -0.0254243643,    0.0000000000,    0.0339123421,    0.0000000000,   -0.0866943483,    0.0000000000,    0.0042687452,    0.0000000000,   -0.0139513791,    0.0000000000,    0.0368457076,    0.0000000000,    0.0086252813,    0.0000000000,   -0.0025332118,    0.0000000000,    0.0050212456,    0.0000000000,   -0.0083350443,    0.0000000000,    0.0024679958,    0.0000000000,    0.0030461822,    0.0000000000,    0.0135606986,    0.0000000000,   -0.0200484779,    0.0000000000,    0.0042614003,    0.0000000000,   -0.0066848432,    0.0000000000,   -0.0124764027,    0.0000000000,   -0.0165461959,    0.0000000000,   -0.0094811058,    0.0000000000,    0.0091806286,    0.0000000000,   -0.0186006987,    0.0000000000,    0.0044365748,    0.0000000000,    0.0179964601,    0.0000000000,   -0.0182599293,    0.0000000000,    0.0036640755,    0.0000000000,   -0.0075705040,    0.0000000000,   -0.0522977509,    0.0000000000,    0.0029695568,    0.0000000000,    0.0073692385,    0.0000000000,   -0.0241222723,    0.0000000000 ]
  - [   -0.0574251643,   -0.0000000000,   -0.0295443524,   -0.0000000000,    0.0042687452,   -0.0000000000,   -0.0457050783,   -0.0000000000,    0.0135531430,   -0.0000000000,   -0.0254243643,   -0.0000000000,    2.3879743931,   -0.0000000000,    0.4162307490,    0.0000000000,    0.3519434332,    0.0000000000,    0.0331833377,    0.0000000000,   -0.0013872209,    0.0000000000,    0.0021428797,    0.0000000000,   -0.1568630993,    0.0000000000,    0.0419241454,    0.0000000000,   -0.0214182189,    0.0000000000,   -0.1040234675,    0.0000000000,    0.0050275673,    0.0000000000,    0.1142007679,    0.0000000000,   -0.9282487504,    0.0000000000,   -0.6082925470,    0.0000000000,    0.5459935528,    0.0000000000,   -0.0147515509,    0.0000000000,    0.0081519562,    0.0000000000,    0.0161176615,    0.0000000000,   -1.3888996601,    0.0000000000,   -0.4998221783,    0.0000000000,   -0.6707149354,    0.0000000000,   -0.0340271840,    0.0000000000,   -0.0124432707,    0.0000000000,   -0.0273769346,    0.0000000000,   -0.6667763641,    0.0000000000,    0.4957024438,    0.0000000000,   -0.4489357983,    0.0000000000,   -0.0103297363,    0.0000000000,    0.0016177135,    0.0000000000,    0.0161980508,    0.0000000000 ]
  - [   -0.0071578246,   -0.0000000000,   -0.0910465351,   -0.0000000000,   -0.0139513791,   -0.0000000000,   -0.0095581182,   -0.0000000000,    0.0147988530,   -0.0000000000,    0.0339123421,   -0.0000000000,    0.4162307490,   -0.0000000000,    2.2096645917,   -0.0000000000,   -0.5972519634,    0.0000000000,   -0.0013872209,    0.0000000000,   -0.1707063788,    0.0000000000,   -0.0712450168,    0.0000000000,    0.0944194581,    0.0000000000,   -0.5181206722,    0.0000000000,   -0.2041499336,    0.0000000000,   -0.0223329540,    0.0000000000,    0.1289222733,    0.0000000000,    0.0639236783,    0.0000000000,   -0.6159837807,    0.0000000000,   -0.9241952892,    0.0000000000,    0.5548876249,    0.0000000000,   -0.0294392108,    0.0000000000,    0.0508895110,    0.0000000000,    0.0353102813,    0.0000000000,   -0.5089038142,    0.0000000000,   -0.5524512758,    0.0000000000,   -0.2492811453,    0.0000000000,    0.0201252995,    0.0000000000,    0.0474599323,    0.0000000000,    0.0455361561,    0.0000000000,    0.4964255578,    0.0000000000,   -1.0873229267,    0.0000000000,    0.6746703931,    0.0000000000,   -0.0015284820,    0.0000000000,    0.0597148835,    0.0000000000,    0.0014960683,    0.0000000000 ]
  - [   -0.0084143770,   -0.0000000000,    0.0086588975,   -0.0000000000,    0.0368457076,   -0.0000000000,   -0.0093136860,   -0.0000000000,    0.0141922843,   -0.0000000000,   -0.0866943483,   -0.0000000000,    0.3519434332,   -0.0000000000,   -0.5972519634,   -0.0000000000,    2.0702929856,   -0.0000000000,    0.0021428797,    0.0000000000,   -0.0712450168,    0.0000000000,   -0.1532531444,    0.0000000000,   -0.0216375471,    0.0000000000,   -0.1344918317,    0.0000000000,   -0.2121843424,    0.0000000000,    0.1193606988,    0.0000000000,    0.0414842218,    0.0000000000,   -0.1157226125,    0.0000000000,    0.5538580761,    0.0000000000,    0.5346144006,    0.0000000000,   -0.8368767693,    0.0000000000,   -0.0091813911,    0.0000000000,    0.0020940368,    0.0000000000,    0.0641620171,    0.0000000000,   -0.6886792818,    0.0000000000,   -0.2551124968,    0.0000000000,   -0.7393787765,    0.0000000000,    0.0204844680,    0.0000000000,    0.0378570875,    0.0000000000,    0.0612785369,    0.0000000000,   -0.4500050905,    0.0000000000,    0.6785041958,    0.0000000000,   -0.9234826089,    0.0000000000,   -0.0042761298,    0.0000000000,    0.0139786728,    0.0000000000,    0.0481362150,    0.0000000000 ]
  - [   -0.0457050783,   -0.0000000000,    0.0135531430,   -0.0000000000,   -0.0254243643,   -0.0000000000,   -0.0574251643,   -0.0000000000,   -0.0295443524,   -0.0000000000,    0.0042687452,   -0.0000000000,    0.0331833377,   -0.0000000000,   -0.0013872209,   -0.0000000000,    0.0021428797,   -0.0000000000,    2.3879743931,   -0.0000000000,    0.4162307490,    0.0000000000,    0.3519434332,    0.0000000000,   -0.1040234675,    0.0000000000,    0.0050275673,    0.0000000000,    0.1142007679,    0.0000000000,   -0.1568630993,    0.0000000000,    0.0419241454,    0.0000000000,   -0.0214182189,    0.0000000000,   -0.0147515509,    0.0000000000,    0.0081519562,    0.0000000000,    0.0161176615,    0.0000000000,   -0.9282487504,    0.0000000000,   -0.6082925470,    0.0000000000,    0.5459935528,    0.0000000000,   -0.0340271840,    0.0000000000,   -0.0124432707,    0.0000000000,   -0.0273769346,    0.0000000000,   -1.3888996601,    0.0000000000,   -0.4998221783,    0.0000000000,   -0.6707149354,    0.0000000000,   -0.0103297363,    0.0000000000,    0.0016177135,    0.0000000000,    0.0161980508,    0.0000000000,   -0.6667763641,    0.0000000000,    0.4957024438,    0.0000000000,   -0.4489357983,    0.0000000000 ]
  - [   -0.0095581182,   -0.0000000000,    0.0147988530,   -0.0000000000,    0.0339123421,   -0.0000000000,   -0.0071578246,   -0.0000000000,   -0.0910465351,   -0.0000000000,   -0.0139513791,   -0.0000000000,   -0.0013872209,   -0.0000000000,   -0.1707063788,   -0.0000000000,   -0.0712450168,   -0.0000000000,    0.4162307490,   -0.0000000000,    2.2096645917,   -0.0000000000,   -0.5972519634,    0.0000000000,   -0.0223329540,    0.0000000000,    0.1289222733,    0.0000000000,    0.0639236783,    0.0000000000,    0.0944194581,    0.0000000000,   -0.5181206722,    0.0000000000,   -0.2041499336,    0.0000000000,   -0.0294392108,    0.0000000000,    0.0508895110,    0.0000000000,    0.0353102813,    0.0000000000,   -0.6159837807,    0.0000000000,   -0.9241952892,    0.0000000000,    0.5548876249,    0.0000000000,    0.0201252995,    0.0000000000,    0.0474599323,    0.0000000000,    0.0455361561,    0.0000000000,   -0.5089038142,    0.0000000000,   -0.5524512758,    0.0000000000,   -0.2492811453,    0.0000000000,   -0.0015284820,    0.0000000000,    0.0597148835,    0.0000000000,    0.0014960683,    0.0000000000,    0.4964255578,    0.0000000000,   -1.0873229267,    0.0000000000,    0.6746703931,    0.0000000000 ]
  - [   -0.0093136860,   -0.0000000000,    0.0141922843,   -0.0000000000,   -0.0866943483,   -0.0000000000,   -0.0084143770,   -0.0000000000,    0.0086588975,   -0.0000000000,    0.0368457076,   -0.0000000000,    0.0021428797,   -0.0000000000,   -0.0712450168,   -0.0000000000,   -0.1532531444,   -0.0000000000,    0.3519434332,   -0.0000000000,   -0.5972519634,   -0.0000000000,    2.0702929856,   -0.0000000000,    0.1193606988,    0.0000000000,    0.0414842218,    0.0000000000,   -0.1157226125,    0.0000000000,   -0.0216375471,    0.0000000000,   -0.1344918317,    0.0000000000,   -0.2121843424,    0.0000000000,   -0.0091813911,    0.0000000000,    0.0020940368,    0.0000000000,    0.0641620171,    0.0000000000,    0.5538580761,    0.0000000000,    0.5346144006,    0.0000000000,   -0.8368767693,    0.0000000000,    0.0204844680,    0.0000000000,    0.0378570875,    0.0000000000,    0.0612785369,    0.0000000000,   -0.6886792818,    0.0000000000,   -0.2551124968,    0.0000000000,   -0.7393787765,    0.0000000000,   -0.0042761298,    0.0000000000,    0.0139786728,    0.0000000000,    0.0481362150,    0.0000000000,   -0.4500050905,    0.0000000000,    0.6785041958,    0.0000000000,   -0.9234826089,    0.0000000000 ]
  - [    0.0128830123,   -0.0000000000,   -0.0068190658,   -0.0000000000,   -0.0083350443,   -0.0000000000,    0.0060922665,   -0.0000000000,   -0.0002161747,   -0.0000000000,    0.0086252813,   -0.0000000000,   -0.1568630993,   -0.0000000000,    0.0944194581,   -0.0000000000,   -0.0216375471,   -0.0000000000,   -0.1040234675,   -0.0000000000,   -0.0223329540,   -0.0000000000,    0.1193606988,   -0.0000000000,    0.7563031175,   -0.0000000000,    0.1011856880,    0.0000000000,   -0.5205682445,    0.0000000000,   -0.3183211479,    0.0000000000,   -0.2620771966,    0.0000000000,    0.2390369091,    0.0000000000,   -0.1134335148,    0.0000000000,    0.0099950298,    0.0000000000,    0.1666839731,    0.0000000000,    0.0162690598,    0.0000000000,    0.0379485984,    0.0000000000,    0.0078318657,    0.0000000000,    0.0178908754,    0.0000000000,   -0.0930440858,    0.0000000000,   -0.0652594597,    0.0000000000,    0.0106887011,    0.0000000000,    0.0020462378,    0.0000000000,   -0.0156780767,    0.0000000000,   -0.0264875539,    0.0000000000,    0.1199311206,    0.0000000000,    0.0733255386,    0.0000000000,    0.0047729920,    0.0000000000,   -0.0094763240,    0.0000000000,   -0.0235682513,    0.0000000000 ]
  - [   -0.0132098691,   -0.0000000000,    0.0210899228,   -0.0000000000,    0.0024679958,   -0.0000000000,    0.0088041436,   -0.0000000000,   -0.0055848759,   -0.0000000000,   -0.0025332118,   -0.0000000000,    0.0419241454,   -0.0000000000,   -0.5181206722,   -0.0000000000,   -0.1344918317,   -0.0000000000,    0.0050275673,   -0.0000000000,    0.1289222733,   -0.0000000000,    0.0414842218,   -0.0000000000,    0.1011856880,   -0.0000000000,    1.4111152247,   -0.0000000000,    0.1927094783,    0.0000000000,   -0.2620771966,    0.0000000000,   -0.6313938966,    0.0000000000,    0.1691363845,    0.0000000000,   -0.0768626669,    0.0000000000,    0.0437756060,    0.0000000000,    0.0968999499,    0.0000000000,    0.0529629566,    0.0000000000,   -0.0047262822,    0.0000000000,   -0.0676207547,    0.0000000000,    0.0044712770,    0.0000000000,   -0.0789042095,    0.0000000000,   -0.1295497427,    0.0000000000,    0.0028712199,    0.0000000000,   -0.0232650466,    0.0000000000,   -0.0335787273,    0.0000000000,    0.1065176645,    0.0000000000,   -0.1541019155,    0.0000000000,   -0.0742809108,    0.0000000000,    0.0097700022,    0.0000000000,   -0.0296915494,    0.0000000000,   -0.0219132357,    0.0000000000 ]
  - [   -0.0011181906,   -0.0000000000,    0.0076703357,   -0.0000000000,    0.0030461822,   -0.0000000000,    0.0008112804,   -0.0000000000,   -0.0040408714,   -0.0000000000,    0.0050212456,   -0.0000000000,   -0.0214182189,   -0.0000000000,   -0.2041499336,   -0.0000000000,   -0.2121843424,   -0.0000000000,    0.1142007679,   -0.0000000000,    0.0639236783,   -0.0000000000,   -0.1157226125,   -0.0000000000,   -0.5205682445,   -0.0000000000,    0.1927094783,   -0.0000000000,    1.0026220842,   -0.0000000000,    0.2390369091,    0.0000000000,    0.1691363845,    0.0000000000,   -0.3177478335,    0.0000000000,    0.1355318490,    0.0000000000,   -0.0048854194,    0.0000000000,   -0.1456010129,    0.0000000000,    0.0201609083,    0.0000000000,   -0.0526842674,    0.0000000000,   -0.0298502948,    0.0000000000,    0.0259227157,    0.0000000000,   -0.1473478021,    0.0000000000,   -0.0986014796,    0.0000000000,   -0.0057692157,    0.0000000000,   -0.0031688344,    0.0000000000,    0.0106414218,    0.0000000000,   -0.0088249188,    0.0000000000,    0.0504633588,    0.0000000000,    0.0228761553,    0.0000000000,   -0.0160055982,    0.0000000000,   -0.0100016192,    0.0000000000,    0.0107792867,    0.0000000000 ]
  - [    0.0060922665,   -0.0000000000,   -0.0002161747,   -0.0000000000,    0.0086252813,   -0.0000000000,    0.0128830123,   -0.0000000000,   -0.0068190658,   -0.0000000000,   -0.0083350443,   -0.0000000000,   -0.1040234675,   -0.0000000000,   -0.0223329540,   -0.0000000000,    0.1193606988,   -0.0000000000,   -0.1568630993,   -0.0000000000,    0.0944194581,   -0.0000000000,   -0.0216375471,   -0.0000000000,   -0.3183211479,   -0.0000000000,   -0.2620771966,   -0.0000000000,    0.2390369091,   -0.0000000000,    0.7563031175,   -0.0000000000,    0.1011856880,    0.0000000000,   -0.5205682445,    0.0000000000,    0.0162690598,    0.0000000000,    0.0379485984,    0.0000000000,    0.0078318657,    0.0000000000,   -0.1134335148,    0.0000000000,    0.0099950298,    0.0000000000,    0.1666839731,    0.0000000000,    0.0106887011,    0.0000000000,    0.0020462378,    0.0000000000,   -0.0156780767,    0.0000000000,    0.0178908754,    0.0000000000,   -0.0930440858,    0.0000000000,   -0.0652594597,    0.0000000000,    0.0047729920,    0.0000000000,   -0.0094763240,    0.0000000000,   -0.0235682513,    0.0000000000,   -0.0264875539,    0.0000000000,    0.1199311206,    0.0000000000,    0.0733255386,    0.0000000000 ]
  - [    0.0088041436,   -0.0000000000,   -0.0055848759,   -0.0000000000,   -0.0025332118,   -0.0000000000,   -0.0132098691,   -0.0000000000,    0.0210899228,   -0.0000000000,    0.0024679958,   -0.0000000000,    0.0050275673,   -0.0000000000,    0.1289222733,   -0.0000000000,    0.0414842218,   -0.0000000000,    0.0419241454,   -0.0000000000,   -0.5181206722,   -0.0000000000,   -0.1344918317,   -0.0000000000,   -0.2620771966,   -0.0000000000,   -0.6313938966,   -0.0000000000,    0.1691363845,   -0.0000000000,    0.1011856880,   -0.0000000000,    1.4111152247,   -0.0000000000,    0.1927094783,    0.0000000000,    0.0529629566,    0.0000000000,   -0.0047262822,    0.0000000000,   -0.0676207547,    0.0000000000,   -0.0768626669,    0.0000000000,    0.0437756060,    0.0000000000,    0.0968999499,    0.0000000000,    0.0028712199,    0.0000000000,   -0.0232650466,    0.0000000000,   -0.0335787273,    0.0000000000,    0.0044712770,    0.0000000000,   -0.0789042095,    0.0000000000,   -0.1295497427,    0.0000000000,    0.0097700022,    0.0000000000,   -0.0296915494,    0.0000000000,   -0.0219132357,    0.0000000000,    0.1065176645,    0.0000000000,   -0.1541019155,    0.0000000000,   -0.0742809108,    0.0000000000 ]
  - [    0.0008112804,   -0.0000000000,   -0.0040408714,   -0.0000000000,    0.0050212456,   -0.0000000000,   -0.0011181906,   -0.0000000000,    0.0076703357,   -0.0000000000,    0.0030461822,   -0.0000000000,    0.1142007679,   -0.0000000000,    0.0639236783,   -0.0000000000,   -0.1157226125,   -0.0000000000,   -0.0214182189,   -0.0000000000,   -0.2041499336,   -0.0000000000,   -0.2121843424,   -0.0000000000,    0.2390369091,   -0.0000000000,    0.1691363845,   -0.0000000000,   -0.3177478335,   -0.0000000000,   -0.5205682445,   -0.0000000000,    0.1927094783,   -0.0000000000,    1.0026220842,   -0.0000000000,    0.0201609083,    0.0000000000,   -0.0526842674,    0.0000000000,   -0.0298502948,    0.0000000000,    0.1355318490,    0.0000000000,   -0.0048854194,    0.0000000000,   -0.1456010129,    0.0000000000,   -0.0057692157,    0.0000000000,   -0.0031688344,    0.0000000000,    0.0106414218,    0.0000000000,    0.0259227157,    0.0000000000,   -0.1473478021,    0.0000000000,   -0.0986014796,    0.0000000000,   -0.0160055982,    0.0000000000,   -0.0100016192,    0.0000000000,    0.0107792867,    0.0000000000,   -0.0088249188,    0.0000000000,    0.0504633588,    0.0000000000,    0.0228761553,    0.0000000000 ]
  - [    0.0048839897,   -0.0000000000,   -0.0053754455,   -0.0000000000,   -0.0066848432,   -0.0000000000,    0.0003559223,   -0.0000000000,    0.0030970283,   -0.0000000000,    0.0135606986,   -0.0000000000,   -0.9282487504,   -0.0000000000,   -0.6159837807,   -0.0000000000,    0.5538580761,   -0.0000000000,   -0.0147515509,   -0.0000000000,   -0.0294392108,   -0.0000000000,   -0.0091813911,   -0.0000000000,   -0.1134335148,   -0.0000000000,   -0.0768626669,   -0.0000000000,    0.1355318490,   -0.0000000000,    0.0162690598,   -0.0000000000,    0.0529629566,   -0.0000000000,    0.0201609083,   -0.0000000000,    1.5435835804,   -0.0000000000,    1.0239376611,    0.0000000000,   -0.9869123810,    0.0000000000,   -0.0278312858,    0.0000000000,    0.0042699486,    0.0000000000,    0.0097642159,    0.0000000000,   -0.1691552398,    0.0000000000,   -0.1616939036,    0.0000000000,    0.0829644779,    0.0000000000,    0.0138932128,    0.0000000000,    0.0128711609,    0.0000000000,    0.0150655325,    0.0000000000,    0.0644946705,    0.0000000000,    0.0572687475,    0.0000000000,   -0.0493270852,    0.0000000000,    0.0001589191,    0.0000000000,    0.0036783552,    0.0000000000,   -0.0067890992,    0.0000000000 ]
  - [   -0.0174858902,   -0.0000000000,   -0.0242253098,   -0.0000000000,   -0.0124764027,   -0.0000000000,    0.0091572711,   -0.0000000000,   -0.0126205696,   -0.0000000000,   -0.0200484779,   -0.0000000000,   -0.6082925470,   -0.0000000000,   -0.9241952892,   -0.0000000000,    0.5346144006,   -0.0000000000,    0.0081519562,   -0.0000000000,    0.0508895110,   -0.0000000000,    0.0020940368,   -0.0000000000,    0.0099950298,   -0.0000000000,    0.0437756060,   -0.0000000000,   -0.0048854194,   -0.0000000000,    0.0379485984,   -0.0000000000,   -0.0047262822,   -0.0000000000,   -0.0526842674,   -0.0000000000,    1.0239376611,   -0.0000000000,    1.4647002578,   -0.0000000000,   -0.8885352024,    0.0000000000,    0.0042699486,    0.0000000000,   -0.0302162848,    0.0000000000,    0.0128456971,    0.0000000000,   -0.1157335419,    0.0000000000,   -0.0269942434,    0.0000000000,    0.0571207623,    0.0000000000,   -0.0079488659,    0.0000000000,   -0.0599362813,    0.0000000000,   -0.0078193593,    0.0000000000,   -0.0929722524,    0.0000000000,   -0.0855382926,    0.0000000000,    0.1647854335,    0.0000000000,    0.0000711573,    0.0000000000,   -0.0207734303,    0.0000000000,   -0.0014126224,    0.0000000000 ]
  - [   -0.0064019524,   -0.0000000000,   -0.0215403917,   -0.0000000000,   -0.0165461959,   -0.0000000000,    0.0113639532,   -0.0000000000,   -0.0082740986,   -0.0000000000,    0.0042614003,   -0.0000000000,    0.5459935528,   -0.0000000000,    0.5548876249,   -0.0000000000,   -0.8368767693,   -0.0000000000,    0.0161176615,   -0.0000000000,    0.0353102813,   -0.0000000000,    0.0641620171,   -0.0000000000,    0.1666839731,   -0.0000000000,    0.0968999499,   -0.0000000000,   -0.1456010129,   -0.0000000000,    0.0078318657,   -0.0000000000,   -0.0676207547,   -0.0000000000,   -0.0298502948,   -0.0000000000,   -0.9869123810,   -0.0000000000,   -0.8885352024,   -0.0000000000,    1.3377734470,   -0.0000000000,    0.0097642159,    0.0000000000,    0.0128456971,    0.0000000000,   -0.0415714171,    0.0000000000,   -0.0647967981,    0.0000000000,   -0.0571464034,    0.0000000000,    0.0878731068,    0.0000000000,   -0.0195665739,    0.0000000000,   -0.0276984899,    0.0000000000,   -0.0347388826,    0.0000000000,    0.0884141584,    0.0000000000,    0.1370801060,    0.0000000000,   -0.0414772578,    0.0000000000,   -0.0033585686,    0.0000000000,   -0.0054687799,    0.0000000000,   -0.0239021670,    0.0000000000 ]
  - [    0.0003559223,   -0.0000000000,    0.0030970283,   -0.0000000000,    0.0135606986,   -0.0000000000,    0.0048839897,   -0.0000000000,   -0.0053754455,   -0.0000000000,   -0.0066848432,   -0.0000000000,   -0.0147515509,   -0.0000000000,   -0.0294392108,   -0.0000000000,   -0.0091813911,   -0.0000000000,   -0.9282487504,   -0.0000000000,   -0.6159837807,   -0.0000000000,    0.5538580761,   -0.0000000000,    0.0162690598,   -0.0000000000,    0.0529629566,   -0.0000000000,    0.0201609083,   -0.0000000000,   -0.1134335148,   -0.0000000000,   -0.0768626669,   -0.0000000000,    0.1355318490,   -0.0000000000,   -0.0278312858,   -0.0000000000,    0.0042699486,   -0.0000000000,    0.0097642159,   -0.0000000000,    1.5435835804,   -0.0000000000,    1.0239376611,    0.0000000000,   -0.9869123810,    0.0000000000,    0.0138932128,    0.0000000000,    0.0128711609,    0.0000000000,    0.0150655325,    0.0000000000,   -0.1691552398,    0.0000000000,   -0.1616939036,    0.0000000000,    0.0829644779,    0.0000000000,    0.0001589191,    0.0000000000,    0.0036783552,    0.0000000000,   -0.0067890992,    0.0000000000,    0.0644946705,    0.0000000000,    0.0572687475,    0.0000000000,   -0.0493270852,    0.0000000000 ]
  - [    0.0091572711,   -0.0000000000,   -0.0126205696,   -0.0000000000,   -0.0200484779,   -0.0000000000,   -0.0174858902,   -0.0000000000,   -0.0242253098,   -0.0000000000,   -0.0124764027,   -0.0000000000,    0.0081519562,   -0.0000000000,    0.0508895110,   -0.0000000000,    0.0020940368,   -0.0000000000,   -0.6082925470,   -0.0000000000,   -0.9241952892,   -0.0000000000,    0.5346144006,   -0.0000000000,    0.0379485984,   -0.0000000000,   -0.0047262822,   -0.0000000000,   -0.0526842674,   -0.0000000000,    0.0099950298,   -0.0000000000,    0.0437756060,   -0.0000000000,   -0.0048854194,   -0.0000000000,    0.0042699486,   -0.0000000000,   -0.0302162848,   -0.0000000000,    0.0128456971,   -0.0000000000,    1.0239376611,   -0.0000000000,    1.4647002578,   -0.0000000000,   -0.8885352024,    0.0000000000,   -0.0079488659,    0.0000000000,   -0.0599362813,    0.0000000000,   -0.0078193593,    0.0000000000,   -0.1157335419,    0.0000000000,   -0.0269942434,    0.0000000000,    0.0571207623,    0.0000000000,    0.0000711573,    0.0000000000,   -0.0207734303,    0.0000000000,   -0.0014126224,    0.0000000000,   -0.0929722524,    0.0000000000,   -0.0855382926,    0.0000000000,    0.1647854335,    0.0000000000 ]
  - [    0.0113639532,   -0.0000000000,   -0.0082740986,   -0.0000000000,    0.0042614003,   -0.0000000000,   -0.0064019524,   -0.0000000000,   -0.0215403917,   -0.0000000000,   -0.0165461959,   -0.0000000000,    0.0161176615,   -0.0000000000,    0.0353102813,   -0.0000000000,    0.0641620171,   -0.0000000000,    0.5459935528,   -0.0000000000,    0.5548876249,   -0.0000000000,   -0.8368767693,   -0.0000000000,    0.0078318657,   -0.0000000000,   -0.0676207547,   -0.0000000000,   -0.0298502948,   -0.0000000000,    0.1666839731,   -0.0000000000,    0.0968999499,   -0.0000000000,   -0.1456010129,   -0.0000000000,    0.0097642159,   -0.0000000000,    0.0128456971,   -0.0000000000,   -0.0415714171,   -0.0000000000,   -0.9869123810,   -0.0000000000,   -0.8885352024,   -0.0000000000,    1.3377734470,   -0.0000000000,   -0.0195665739,    0.0000000000,   -0.0276984899,    0.0000000000,   -0.0347388826,    0.0000000000,   -0.0647967981,    0.0000000000,   -0.0571464034,    0.0000000000,    0.0878731068,    0.0000000000,   -0.0033585686,    0.0000000000,   -0.0054687799,    0.0000000000,   -0.0239021670,    0.0000000000,    0.0884141584,    0.0000000000,    0.1370801060,    0.0000000000,   -0.0414772578,    0.0000000000 ]