default
2.5943 -0.0755 -0.2943 -0.0755 2.4723 0.1445 -0.2943 0.1445 2.8515 
2.6407 -0.4515 -0.0813 0.1414 3.2246 0.1026 0.2592 0.8575 3.2463 
1.2749 0.0294 0.0037 0.0229 1.1883 -0.0478 -0.0389 -0.0475 1.2089 
-0.4110 0.3470 0.1749 0.1249 -0.9371 -0.3436 0.0580 -0.6595 -0.7664 
-1.2326 -0.2258 0.4579 -0.2400 -1.1096 0.1061 0.4159 0.0517 -1.3036 
-1.3078 -0.1069 -0.2425 -0.3042 -1.0104 -0.2192 -0.5483 -0.3439 -1.2403 
-0.9642 0.4078 -0.3127 0.2550 -1.3558 0.4019 -0.1457 0.1417 -1.1448 
