12   
36   

1    
  0.0099439312085040  -0.0010574462157952   0.0000062945405462
  -0.7310444974   -0.0317107480   -0.0701866427
   0.0053116416   -0.0117433916   -0.0319593318
   0.0174617991    0.0169070038    0.0001928644
   0.0081711836   -0.0162539513    0.0044016736
   0.0137338448   -0.0086832954    0.0058611021
   0.0364407435   -0.0132063892   -0.0289894476
   0.2069091993    0.1188101195   -0.1210074383
   0.0033925112   -0.0031408573   -0.0086971058
   0.2913678955    0.0754416983    0.1440465975
   0.0198839662    0.0036108422    0.0063208456
   0.1361283134   -0.1304158941    0.1099953018
  -0.0077566007    0.0003848630   -0.0099784187

1    
 -0.0099439312085040   0.0010574462157952  -0.0000062945405462
   0.7059935297    0.0691784805    0.1492242890
   0.0310318370   -0.0212991541   -0.0327292865
  -0.0123015532    0.0079745822    0.0023499813
  -0.0133027400   -0.0087890436   -0.0070660889
  -0.0461511243    0.0298177423    0.0051383568
  -0.0040110365   -0.0078633007    0.0181063031
  -0.1998118955   -0.1111066312    0.1250552948
  -0.0057421151    0.0012879367   -0.0012956186
  -0.3278879405   -0.0857511607   -0.1562967071
   0.0005062075   -0.0001185559   -0.0055673056
  -0.1146079015    0.1237116875   -0.0942718123
  -0.0137152674    0.0029574169   -0.0026474059

1    
 -0.0000039847124613   0.0099999987823166   0.0000029113113852
  -0.1409541246   -0.6180748575    0.2214079594
   0.0280974857    0.0345813582   -0.0145314778
   0.0040694536    0.0333250264    0.0038303990
  -0.0011844946   -0.0165110041   -0.0097143966
  -0.0323774530    0.1364282352    0.0589463040
   0.0134143103   -0.0383324525   -0.0135793556
   0.1375313367    0.1661181835   -0.1091301195
   0.0032958578   -0.0130565289   -0.0095597830
   0.0853153551    0.0876832093    0.0395165293
   0.0019328446   -0.0070636800   -0.0105451226
  -0.0871430901    0.2445189489   -0.1507131283
  -0.0119974815   -0.0096164385   -0.0059278083

1    
  0.0000039847124613  -0.0099999987823166  -0.0000029113113852
   0.0953581296    0.6531920388   -0.1658608213
   0.0082555544   -0.0669194783   -0.0506944722
   0.0012745353   -0.0083749439   -0.0013175353
  -0.0040518390   -0.0085721565    0.0072358549
  -0.0013532522   -0.1112872394   -0.0444030584
   0.0186065627    0.0165318075    0.0028066435
  -0.1296192495   -0.1622503568    0.1146352399
  -0.0058144969    0.0110331999   -0.0001866828
  -0.1066221206   -0.0898755808   -0.0406723989
   0.0181691129    0.0105392725    0.0111629574
   0.1151759206   -0.2572244582    0.1740857087
  -0.0093788573    0.0132078952   -0.0067914355

1    
 -0.0026109215556797  -0.0019259345391775   0.0094590625741080
   0.1030598616    0.3502481272   -0.5622085057
   0.0215081731   -0.0115900375    0.0031740128
  -0.0002428153    0.0048763388   -0.0073573110
  -0.0045171081   -0.0141475700    0.0176013607
  -0.0152864628    0.0250419511    0.0379843809
  -0.0132617594   -0.0096886378    0.0288448161
  -0.2033170694   -0.1616807582    0.2240945527
  -0.0030466059    0.0028982382   -0.0146725229
   0.0386145413   -0.0039049827    0.0942290300
   0.0040249806   -0.0029725240   -0.0089475122
   0.0833102022   -0.1810031321    0.2018481719
  -0.0108459379    0.0019229871   -0.0145904732

1    
  0.0026109215556797   0.0019259345391775  -0.0094590625741080
  -0.1578600561   -0.3230699141    0.6290530790
   0.0148006199   -0.0214425805   -0.0684898703
   0.0054220410    0.0201541509    0.0099122959
  -0.0004538815   -0.0109440593   -0.0201639469
  -0.0168633177   -0.0022454559   -0.0264193539
   0.0450527892   -0.0118211992   -0.0388876129
   0.2189060290    0.1745417401   -0.2225897605
   0.0006135223   -0.0048242822    0.0048140892
  -0.0578886916    0.0010188920   -0.0937871173
   0.0161801081    0.0067176604    0.0095902745
  -0.0568850855    0.1703438099   -0.1852250402
  -0.0110240771    0.0015712379    0.0021929634

3    
  0.0099439312085040  -0.0010574462157952   0.0000062945405462
  -0.0031564840    0.0159477394    0.0341596234
   0.0290395985   -0.0149628660   -0.0310781667
  -0.0166094056    0.0079965468    0.0002455212
  -0.0035355629   -0.0127497614   -0.0020230729
  -0.0176782870    0.0134487750    0.0062977961
   0.0153869024   -0.0121193900   -0.0059961737
   0.0005150513    0.0034438803    0.0068579082
  -0.0005698619   -0.0029620512   -0.0077185192
  -0.0110179722    0.0028036767   -0.0024770527
   0.0103815590   -0.0009058313    0.0031090537
   0.0093325676   -0.0015735351    0.0049158594
  -0.0120881051    0.0016328169   -0.0062927768

3    
 -0.0099439312085040   0.0010574462157952  -0.0000062945405462
  -0.0318461218    0.0173848401    0.0309859479
   0.0060903159   -0.0184545185   -0.0340307515
   0.0217821399    0.0164304722    0.0024059422
  -0.0016676667   -0.0122292874   -0.0004276272
  -0.0148062599    0.0077039812    0.0050859328
   0.0171241096   -0.0090649463   -0.0053866581
   0.0009073120   -0.0020308396    0.0035215200
  -0.0008702141    0.0016210952   -0.0027522831
  -0.0092736596   -0.0059197506    0.0015668857
   0.0099301081    0.0044490689   -0.0023273054
   0.0116880242   -0.0012729443    0.0076630979
  -0.0090580875    0.0013828291   -0.0063047012

3    
 -0.0000039847124613   0.0099999987823166   0.0000029113113852
  -0.0108430402    0.0374835448    0.0304953331
   0.0134343291   -0.0205285971   -0.0361085381
  -0.0043094066   -0.0133710496    0.0034877182
  -0.0027345853   -0.0109575222   -0.0008440355
  -0.0150610577    0.0061722976    0.0041191113
   0.0166220578   -0.0088510703   -0.0047620530
   0.0016795981    0.0030493976    0.0091871502
  -0.0018129244    0.0021925419   -0.0029610853
  -0.0066466760    0.0024255802   -0.0026056799
   0.0098240567    0.0048026871   -0.0021797793
   0.0091297747   -0.0042883655    0.0082307091
  -0.0092821262    0.0018705555   -0.0060588507

3    
  0.0000039847124613  -0.0099999987823166  -0.0000029113113852
  -0.0242713648   -0.0040785383    0.0346904304
   0.0216312897   -0.0127762615   -0.0288948471
   0.0095326069    0.0380140924   -0.0009406663
  -0.0024317422   -0.0140056842   -0.0016304958
  -0.0174942840    0.0149474379    0.0072474034
   0.0158522819   -0.0123140484   -0.0065880994
  -0.0004153653   -0.0018801078    0.0009775033
   0.0003303164   -0.0034890793   -0.0073664018
  -0.0134812860   -0.0054166234    0.0015941997
   0.0105796348   -0.0014688293    0.0030326839
   0.0120045179    0.0013198842    0.0044149907
  -0.0118366053    0.0011477576   -0.0065367009

3    
 -0.0026109215556797  -0.0019259345391775   0.0094590625741080
  -0.0233941474    0.0145941909    0.0242706614
   0.0201035709   -0.0242195265   -0.0136320777
   0.0079873265    0.0211819779   -0.0320702800
  -0.0030566151   -0.0123539194    0.0017411614
  -0.0148785408    0.0107622326    0.0058378144
   0.0151961625   -0.0098990178   -0.0061125166
   0.0023480378    0.0018654724    0.0065434170
  -0.0028984998    0.0028271510   -0.0048631401
  -0.0114553490   -0.0069327057    0.0031670191
   0.0106554008    0.0002859679    0.0029683223
   0.0110384306   -0.0014900784    0.0101264077
  -0.0116457770    0.0033782553    0.0020232111

3    
  0.0026109215556797   0.0019259345391775  -0.0094590625741080
  -0.0114853384    0.0186218561    0.0407981995
   0.0152437976   -0.0091397056   -0.0514143815
  -0.0033147287    0.0036890419    0.0338825105
  -0.0021280040   -0.0126254659   -0.0041690880
  -0.0176226525    0.0103798645    0.0055966117
   0.0173014684   -0.0112656869   -0.0052939494
  -0.0008875392   -0.0003658036    0.0038445521
   0.0016228453   -0.0042668296   -0.0057716881
  -0.0088825983    0.0037628612   -0.0040894108
   0.0094974977    0.0031099288   -0.0022734072
   0.0100433107   -0.0014062268    0.0024681314
  -0.0093880586   -0.0004938341   -0.0135780803

5    
  0.0099439312085040  -0.0010574462157952   0.0000062945405462
   0.0115582715   -0.0117971525    0.0342716133
   0.0381536522   -0.0163894826   -0.0574192728
   0.0010243958    0.0141543228    0.0026162689
  -0.0032535775   -0.0123034351   -0.0025770466
  -0.1136712912    0.0117922659    0.0774541731
   0.0583311483    0.0215529397   -0.0368722513
   0.0146243868   -0.0004921595   -0.0152826402
  -0.0041646313   -0.0058429998   -0.0052098391
  -0.0121785746    0.0099976116    0.0076948165
   0.0085668146    0.0021222832    0.0024996693
   0.0114778945   -0.0154999002   -0.0037709339
  -0.0104684892    0.0027057066   -0.0034045573

5    
 -0.0099439312085040   0.0010574462157952  -0.0000062945405462
  -0.0464680820    0.0447389809    0.0313201798
  -0.0028864277   -0.0172971810   -0.0077124830
   0.0040988525    0.0108455868   -0.0001509261
  -0.0019262047   -0.0126035150    0.0000539013
   0.0810861021    0.0106883224   -0.0684126668
  -0.0268183943   -0.0433776940    0.0280435868
  -0.0124775690    0.0021457438    0.0250360634
   0.0026915869    0.0045955463   -0.0048989007
  -0.0085500752   -0.0136992268   -0.0085334031
   0.0119541570    0.0013023638   -0.0017061159
   0.0096208441    0.0125402919    0.0161331918
  -0.0103247897    0.0001207807   -0.0091724275

5    
 -0.0000039847124613   0.0099999987823166   0.0000029113113852
  -0.0235082352    0.1383373013    0.0688604625
   0.0122994608   -0.0435212238   -0.0386557372
   0.0050249705    0.0081768183    0.0011530507
  -0.0040165010   -0.0107571797   -0.0004209146
  -0.0388741361   -0.1917525270   -0.0271418133
   0.0576718936    0.0723070348   -0.0314455817
   0.0108332067   -0.0068595590   -0.0078848940
  -0.0077365024    0.0022485581    0.0043093496
  -0.0120171097    0.0041121705    0.0125364925
   0.0110062840    0.0047817271    0.0044608709
   0.0009377519    0.0171206517    0.0175932805
  -0.0116210830    0.0058062276   -0.0033645659

5    
  0.0000039847124613  -0.0099999987823166  -0.0000029113113852
  -0.0102145040   -0.1089153733   -0.0072359277
   0.0228572118    0.0105247747   -0.0264557372
   0.0001298729    0.0168569436    0.0013361211
  -0.0011746328   -0.0142233118   -0.0021261901
   0.0042521862    0.2192743677    0.0420883667
  -0.0256270115   -0.0942113819    0.0204968741
  -0.0091990784    0.0082529226    0.0184063036
   0.0067368176   -0.0035692808   -0.0146442816
  -0.0088442250   -0.0083818898   -0.0138129657
   0.0095238448   -0.0014892227   -0.0036136053
   0.0208528438   -0.0210777570   -0.0052246618
  -0.0092933254   -0.0030407912   -0.0092142961

5    
 -0.0026109215556797  -0.0019259345391775   0.0094590625741080
  -0.0187788083    0.0450927028    0.0676278020
  -0.0100210909   -0.0192961731    0.0007798567
   0.0029101029    0.0115346351    0.0008495439
  -0.0022816726   -0.0118981205   -0.0014497419
   0.0828941269    0.0250533103   -0.1471533377
  -0.0403858172   -0.0631000539    0.0553468017
  -0.0201011739    0.0037626216    0.0308221923
   0.0015265509    0.0076522470   -0.0034802739
  -0.0125197245    0.0085506325    0.0041399229
   0.0110540854    0.0010048971   -0.0026594549
   0.0136436155   -0.0095620217    0.0045429848
  -0.0079401943    0.0012053228   -0.0093662959

5    
  0.0026109215556797   0.0019259345391775  -0.0094590625741080
  -0.0168512544   -0.0131043363   -0.0024008414
   0.0448274627   -0.0153013058   -0.0661903615
   0.0022944450    0.0134888424    0.0016400871
  -0.0027911631   -0.0129992024   -0.0011722248
  -0.1107941592    0.0006615986    0.1536671200
   0.0675647042    0.0394130667   -0.0615621629
   0.0226143898   -0.0021544769   -0.0210745724
  -0.0029457306   -0.0087488334   -0.0062800513
  -0.0080634347   -0.0125021465   -0.0047962950
   0.0096061875    0.0025462224    0.0037582614
   0.0075716848    0.0068460825    0.0077981702
  -0.0130331320    0.0018544888   -0.0033871293

7    
  0.0099439312085040  -0.0010574462157952   0.0000062945405462
   0.1837457566    0.1287559288   -0.0876705426
   0.0228936400   -0.0108959502   -0.0322955785
   0.0023197626    0.0133994328    0.0026630030
  -0.0023320050   -0.0137879226   -0.0043003324
  -0.0016321858    0.0213176747   -0.0106638472
   0.0130819891   -0.0177634577   -0.0067478025
  -0.2297451597   -0.1216846971    0.1485394849
   0.0046342474   -0.0037577555   -0.0047016193
   0.0084390539    0.0127709037   -0.0113585309
   0.0079844529   -0.0000459492   -0.0018172605
   0.0016039981   -0.0089940320    0.0134755525
  -0.0109935500    0.0006858243   -0.0051225265

7    
 -0.0099439312085040   0.0010574462157952  -0.0000062945405462
  -0.2236924856   -0.1012092091    0.1584026621
   0.0123496817   -0.0225810661   -0.0325738587
   0.0030199204    0.0115937127   -0.0002820935
  -0.0029197893   -0.0111413872    0.0017529116
  -0.0312860782   -0.0001564833    0.0223584947
   0.0201286855   -0.0030860586   -0.0045434786
   0.2362983154    0.1295399169   -0.1442356714
  -0.0064553065    0.0022556521   -0.0058931501
  -0.0293830229   -0.0167431326    0.0108090002
   0.0124686886    0.0033303507    0.0025296940
   0.0195240415    0.0059652836   -0.0009981142
  -0.0100526505    0.0022324208   -0.0073263959

7    
 -0.0000039847124613   0.0099999987823166   0.0000029113113852
   0.1132889542    0.1801660555   -0.0729040904
   0.0141194248   -0.0289030561   -0.0314663572
   0.0059074316    0.0151096139    0.0037318197
  -0.0045614512   -0.0095585141    0.0026750224
  -0.0185242708    0.0031452405    0.0066375805
   0.0118116269   -0.0076114373    0.0022490762
  -0.1424479120   -0.1775061931    0.1200150733
  -0.0031802222    0.0052622140   -0.0085959208
  -0.0024222812   -0.0020533628   -0.0063664632
   0.0131242208    0.0136283182    0.0011554692
   0.0232116694    0.0040503687   -0.0106605474
  -0.0103271902    0.0042707525   -0.0064706622

7    
  0.0000039847124613  -0.0099999987823166  -0.0000029113113852
  -0.1538654665   -0.1492406802    0.1421652433
   0.0210854661   -0.0044930100   -0.0331451786
  -0.0003477127    0.0100942115   -0.0011683239
  -0.0006658979   -0.0153637509   -0.0050625307
  -0.0139850068    0.0184470837    0.0045097137
   0.0212754592   -0.0136071066   -0.0135584577
   0.1491056458    0.1811598522   -0.1144553987
   0.0013530254   -0.0067719535   -0.0020165307
  -0.0182054851   -0.0011711564    0.0058129889
   0.0072640454   -0.0103394349   -0.0004767153
  -0.0021830400   -0.0074729594    0.0235716242
  -0.0108310328   -0.0012410956   -0.0061764345

7    
 -0.0026109215556797  -0.0019259345391775   0.0094590625741080
  -0.2354774467   -0.1608680726    0.2595137695
   0.0127605096   -0.0200842052   -0.0450654273
   0.0040359008    0.0154857370    0.0029952329
  -0.0042642945   -0.0108277577   -0.0010920749
  -0.0407686308   -0.0029110459    0.0277691647
   0.0193162265   -0.0002022693   -0.0036266750
   0.2518995048    0.1897329917   -0.2469968068
  -0.0015014206   -0.0043153857    0.0009705903
  -0.0074849139    0.0012186049   -0.0068123903
   0.0133591240    0.0033242092    0.0060291303
  -0.0020220645   -0.0120624782    0.0099486679
  -0.0098524946    0.0015096719   -0.0036331811

7    
  0.0026109215556797   0.0019259345391775  -0.0094590625741080
   0.1871976878    0.1834797200   -0.1864559256
   0.0223506544   -0.0132926086   -0.0199500680
   0.0011917926    0.0094228026   -0.0006191884
  -0.0006999031   -0.0143317778   -0.0015896586
   0.0074437389    0.0240654177   -0.0158237752
   0.0139423839   -0.0205532144   -0.0076690080
  -0.2372064362   -0.1772891854    0.2486957794
  -0.0002298391    0.0028623571   -0.0114627980
  -0.0128062236   -0.0044345445    0.0061551263
   0.0070251768    0.0000496008   -0.0051254563
   0.0230171525    0.0086049526    0.0027648631
  -0.0112261850    0.0014164799   -0.0089198907

9    
  0.0099439312085040  -0.0010574462157952   0.0000062945405462
   0.3001614433    0.1054917667    0.1919076737
   0.0257728303   -0.0233894592   -0.0376250219
   0.0015215335    0.0152563828    0.0009190052
  -0.0021085258   -0.0130508013   -0.0006217973
  -0.0197447892    0.0082323548    0.0007080224
   0.0145992881   -0.0101879046   -0.0051657439
   0.0191548402    0.0089854454    0.0142974042
  -0.0026326479    0.0009436756   -0.0022313857
  -0.3631717385   -0.0964286940   -0.1781255852
   0.0127915429   -0.0001059357   -0.0014988492
   0.0252047769    0.0021477318    0.0211999956
  -0.0115485538    0.0021054377   -0.0037637179

9    
 -0.0099439312085040   0.0010574462157952  -0.0000062945405462
  -0.3206282365   -0.0655980153   -0.1163584972
   0.0089848732   -0.0097611603   -0.0278960100
   0.0035999411    0.0094436964    0.0016214971
  -0.0031191367   -0.0117848219   -0.0019109131
  -0.0130726651    0.0130260433    0.0101473414
   0.0179641450   -0.0110695444   -0.0061390729
  -0.0172601125   -0.0072279066   -0.0039450580
   0.0012498604   -0.0023657506   -0.0081245317
   0.3283440158    0.0864247017    0.1670005461
   0.0072796599    0.0032463970    0.0024321431
  -0.0039230133   -0.0049953321   -0.0081814537
  -0.0094193312    0.0006616930   -0.0086459911

9    
 -0.0000039847124613   0.0099999987823166   0.0000029113113852
   0.0732616221    0.1046430662    0.0736388521
   0.0182094298   -0.0252225537   -0.0396291759
   0.0073100771    0.0161843021   -0.0023030790
  -0.0049804809   -0.0094556857   -0.0026818396
  -0.0034352308    0.0173307809    0.0221174492
   0.0170042744   -0.0073146882   -0.0057703464
   0.0159226499    0.0004386037    0.0119051377
  -0.0013137887    0.0111691781   -0.0010857663
  -0.1139263886   -0.1084480213   -0.0491817746
   0.0089527923    0.0056746035    0.0055412996
  -0.0062066031   -0.0096300555   -0.0070940326
  -0.0107983535    0.0046304699   -0.0054567243

9    
  0.0000039847124613  -0.0099999987823166  -0.0000029113113852
  -0.1076396834   -0.0723178733   -0.0080090657
   0.0168163625   -0.0075272290   -0.0256767787
  -0.0024331179    0.0083846950    0.0049477340
  -0.0001914983   -0.0155828598    0.0003649166
  -0.0289082689    0.0046967070   -0.0103290441
   0.0156334870   -0.0139170665   -0.0055592805
  -0.0138739883    0.0008819607   -0.0017477822
  -0.0004421328   -0.0126066980   -0.0093102103
   0.0929754564    0.1057639003    0.0475543987
   0.0110155517   -0.0026123130   -0.0047976316
   0.0272699880    0.0068274583    0.0196205526
  -0.0102221562   -0.0019906818   -0.0070578088

9    
 -0.0026109215556797  -0.0019259345391775   0.0094590625741080
   0.0277939161    0.0125389307    0.1250457459
   0.0193940172   -0.0231263632   -0.0403152845
  -0.0003892707    0.0088142664    0.0047503031
   0.0000555215   -0.0154602086    0.0016072854
  -0.0092247137    0.0224855906    0.0127317412
   0.0189678400   -0.0074743978   -0.0075837623
  -0.0183869690   -0.0070717733   -0.0093460026
  -0.0023387069   -0.0030148398   -0.0017389695
  -0.0649050621    0.0004610823   -0.1008742532
   0.0082466401    0.0055929248    0.0048570351
   0.0327577282    0.0013347537    0.0098660392
  -0.0119709406    0.0049200343    0.0010001222

9    
  0.0026109215556797   0.0019259345391775  -0.0094590625741080
  -0.0638300589    0.0206509473   -0.0610996563
   0.0157499341   -0.0095996699   -0.0249410108
   0.0054721213    0.0160323344   -0.0022532848
  -0.0053168265   -0.0094265474   -0.0042121201
  -0.0233630337   -0.0008625788   -0.0015964088
   0.0136437884   -0.0137592715   -0.0037945728
   0.0201559000    0.0085545306    0.0196224503
   0.0007613579    0.0015140805   -0.0085486718
   0.0453462878   -0.0039298510    0.1017862017
   0.0117221082   -0.0025665505   -0.0041013123
  -0.0113173628   -0.0042951725    0.0026855439
  -0.0090242157   -0.0023122511   -0.0135471584

11   
  0.0099439312085040  -0.0010574462157952   0.0000062945405462
   0.1082754280   -0.1080017228    0.1333507889
   0.0204603484   -0.0169859582   -0.0316716843
   0.0013372537    0.0113622179    0.0011022870
  -0.0039518483   -0.0113485151   -0.0027358202
  -0.0152423397   -0.0016678138    0.0076639893
   0.0160568086   -0.0120664651   -0.0034403075
  -0.0062028856    0.0127688000   -0.0061302359
  -0.0008627918   -0.0008039408   -0.0047847372
   0.0018360315   -0.0174026847    0.0219326594
   0.0091020638    0.0010848396   -0.0017580968
  -0.1216670376    0.1431756810   -0.1089059378
  -0.0091410310   -0.0001144378   -0.0046229047

11   
 -0.0099439312085040   0.0010574462157952  -0.0000062945405462
  -0.1430568893    0.1454994007   -0.0713613879
   0.0148500164   -0.0166239005   -0.0336453213
   0.0039114028    0.0136080633    0.0011876938
  -0.0011878282   -0.0136978213    0.0002985568
  -0.0173218371    0.0224484324    0.0037438070
   0.0167754408   -0.0084648579   -0.0079054942
   0.0074248044   -0.0114969197    0.0167553311
  -0.0004889815   -0.0007108298   -0.0054462380
  -0.0226726690    0.0142536056   -0.0239002299
   0.0113096813    0.0022683243    0.0027279809
   0.1426207714   -0.1500364240    0.1255192588
  -0.0121639120    0.0029529268   -0.0079739570

11   
 -0.0000039847124613   0.0099999987823166   0.0000029113113852
  -0.1213874417    0.2724954915   -0.1347989225
   0.0153963471   -0.0285306953   -0.0353661022
   0.0021287327    0.0095609129    0.0002979514
  -0.0024684791   -0.0121865174    0.0010301935
  -0.0285016000    0.0297739908   -0.0026155259
   0.0181957393   -0.0056310344   -0.0046449247
  -0.0065230860    0.0063297660   -0.0063728278
  -0.0011961965    0.0022185252   -0.0045052820
  -0.0076451842   -0.0100600187    0.0015553755
   0.0112573373    0.0050162266    0.0051111666
   0.1323696722   -0.2755443747    0.1893530371
  -0.0116258413    0.0065577275   -0.0090441390

11   
  0.0000039847124613  -0.0099999987823166  -0.0000029113113852
   0.0808327492   -0.2293917715    0.1900226290
   0.0199250215   -0.0053078422   -0.0297079387
   0.0031928606    0.0152836621    0.0019840322
  -0.0027057782   -0.0128737010   -0.0034347360
  -0.0046272163   -0.0080802888    0.0139425160
   0.0144917908   -0.0149886777   -0.0067071198
   0.0075569723   -0.0051210711    0.0165974681
  -0.0001857361   -0.0036989264   -0.0058295773
  -0.0127712862    0.0064999972   -0.0025899479
   0.0091263653   -0.0015457453   -0.0042231914
  -0.1049754703    0.2629169824   -0.1664558664
  -0.0098602727   -0.0036926177   -0.0035982678

11   
 -0.0026109215556797  -0.0019259345391775   0.0094590625741080
   0.0506954455   -0.1552176719    0.2242815073
   0.0142632634   -0.0131625933   -0.0415074540
   0.0019229477    0.0153061816    0.0052820524
  -0.0021433331   -0.0127085016    0.0070730523
  -0.0221817727    0.0201973596    0.0049797999
   0.0191134319   -0.0084382874   -0.0080259328
   0.0090088695   -0.0196067701    0.0124150434
   0.0002551120   -0.0018438811   -0.0022144286
  -0.0014218419   -0.0082493838   -0.0026535900
   0.0119945951    0.0016866026    0.0080866461
  -0.0720284332    0.1840799680   -0.2056000958
  -0.0094782844   -0.0020430224   -0.0021166001

11   
  0.0026109215556797   0.0019259345391775  -0.0094590625741080
  -0.0897034195    0.1960643721   -0.1626874471
   0.0212490027   -0.0197559483   -0.0233831407
   0.0032087305    0.0097038537   -0.0028580200
  -0.0028839155   -0.0123848486   -0.0084186472
  -0.0103157177    0.0004260887    0.0061064764
   0.0135554983   -0.0125492338   -0.0034412034
  -0.0079177865    0.0214047444   -0.0020702025
  -0.0017239729    0.0002106738   -0.0079445070
  -0.0193258280    0.0047794196    0.0014695797
   0.0078095541    0.0015912120   -0.0072698480
   0.0977632695   -0.1941492881    0.2207574804
  -0.0117154151    0.0046589544   -0.0102605206
