phonopy:
  version: "2.26.3"
  calculator: crystal
  frequency_unit_conversion_factor: 15.633302
  symmetry_tolerance: 1.00000e-05
  configuration:
    qpoints: "0 0 0"
    dim: "1 1 1"
    writedm: ".true."

physical_unit:
  atomic_mass: "AMU"
  length: "angstrom"
  force: "eV/angstrom"
  force_constants: "eV/angstrom^2"

space_group:
  type: "P-1"
  number: 2
  Hall_symbol: "-P 1"

supercell_matrix:
- [   1,   0,   0 ]
- [   0,   1,   0 ]
- [   0,   0,   1 ]

primitive_cell:
  lattice:
  - [     4.740965852480000,    -0.504158395186000,     0.003001046684740 ] # a
  - [    -0.002200508721970,     5.522377023140000,     0.001607736105860 ] # b
  - [    -1.610578570420000,    -1.188036036580000,     5.834937263810000 ] # c
  points:
  - symbol: S  # 1
    coordinates: [  0.606459427348200,  0.774830851396400,  0.234319005660300 ]
    mass: 32.065000
  - symbol: S  # 2
    coordinates: [  0.393540572651800,  0.225169148603600,  0.765680994339700 ]
    mass: 32.065000
  - symbol: Na # 3
    coordinates: [  0.053953763308520,  0.308106969165500,  0.217060738218100 ]
    mass: 22.989769
  - symbol: Na # 4
    coordinates: [  0.946046236691480,  0.691893030834500,  0.782939261781900 ]
    mass: 22.989769
  - symbol: O  # 5
    coordinates: [  0.573898846575400,  0.042825888235010,  0.410527166975000 ]
    mass: 15.999400
  - symbol: O  # 6
    coordinates: [  0.426101153424600,  0.957174111764990,  0.589472833025000 ]
    mass: 15.999400
  - symbol: O  # 7
    coordinates: [  0.768412335539800,  0.904097107407990,  0.093195576348940 ]
    mass: 15.999400
  - symbol: O  # 8
    coordinates: [  0.231587664460200,  0.095902892592010,  0.906804423651060 ]
    mass: 15.999400
  - symbol: O  # 9
    coordinates: [  0.298121782143200,  0.641466777229600,  0.110571634306000 ]
    mass: 15.999400
  - symbol: O  # 10
    coordinates: [  0.701878217856800,  0.358533222770400,  0.889428365694000 ]
    mass: 15.999400
  - symbol: O  # 11
    coordinates: [  0.780620571558200,  0.626242711940200,  0.386365379082900 ]
    mass: 15.999400
  - symbol: O  # 12
    coordinates: [  0.219379428441800,  0.373757288059800,  0.613634620917100 ]
    mass: 15.999400
  reciprocal_lattice: # without 2pi
  - [     0.210897760641017,     0.000067085197386,     0.058226352419796 ] # a*
  - [     0.019229168084882,     0.181076826419521,     0.042176268585921 ] # b*
  - [    -0.000113768053227,    -0.000049927713771,     0.171339880188444 ] # c*

unit_cell:
  lattice:
  - [     4.740965852480000,    -0.504158395186000,     0.003001046684740 ] # a
  - [    -0.002200508721970,     5.522377023140000,     0.001607736105860 ] # b
  - [    -1.610578570420000,    -1.188036036580000,     5.834937263810000 ] # c
  points:
  - symbol: S  # 1
    coordinates: [ -0.393540572651800, -0.225169148603600,  0.234319005660300 ]
    mass: 32.065000
    reduced_to: 1
  - symbol: S  # 2
    coordinates: [  0.393540572651800,  0.225169148603600, -0.234319005660300 ]
    mass: 32.065000
    reduced_to: 2
  - symbol: Na # 3
    coordinates: [  0.053953763308520,  0.308106969165500,  0.217060738218100 ]
    mass: 22.989769
    reduced_to: 3
  - symbol: Na # 4
    coordinates: [ -0.053953763308520, -0.308106969165500, -0.217060738218100 ]
    mass: 22.989769
    reduced_to: 4
  - symbol: O  # 5
    coordinates: [ -0.426101153424600,  0.042825888235010,  0.410527166975000 ]
    mass: 15.999400
    reduced_to: 5
  - symbol: O  # 6
    coordinates: [  0.426101153424600, -0.042825888235010, -0.410527166975000 ]
    mass: 15.999400
    reduced_to: 6
  - symbol: O  # 7
    coordinates: [ -0.231587664460200, -0.095902892592010,  0.093195576348940 ]
    mass: 15.999400
    reduced_to: 7
  - symbol: O  # 8
    coordinates: [  0.231587664460200,  0.095902892592010, -0.093195576348940 ]
    mass: 15.999400
    reduced_to: 8
  - symbol: O  # 9
    coordinates: [  0.298121782143200, -0.358533222770400,  0.110571634306000 ]
    mass: 15.999400
    reduced_to: 9
  - symbol: O  # 10
    coordinates: [ -0.298121782143200,  0.358533222770400, -0.110571634306000 ]
    mass: 15.999400
    reduced_to: 10
  - symbol: O  # 11
    coordinates: [ -0.219379428441800, -0.373757288059800,  0.386365379082900 ]
    mass: 15.999400
    reduced_to: 11
  - symbol: O  # 12
    coordinates: [  0.219379428441800,  0.373757288059800, -0.386365379082900 ]
    mass: 15.999400
    reduced_to: 12

supercell:
  lattice:
  - [     4.740965852480000,    -0.504158395186000,     0.003001046684740 ] # a
  - [    -0.002200508721970,     5.522377023140000,     0.001607736105860 ] # b
  - [    -1.610578570420000,    -1.188036036580000,     5.834937263810000 ] # c
  points:
  - symbol: S  # 1
    coordinates: [  0.606459427348200,  0.774830851396400,  0.234319005660300 ]
    mass: 32.065000
    reduced_to: 1
  - symbol: S  # 2
    coordinates: [  0.393540572651800,  0.225169148603600,  0.765680994339700 ]
    mass: 32.065000
    reduced_to: 2
  - symbol: Na # 3
    coordinates: [  0.053953763308520,  0.308106969165500,  0.217060738218100 ]
    mass: 22.989769
    reduced_to: 3
  - symbol: Na # 4
    coordinates: [  0.946046236691480,  0.691893030834500,  0.782939261781900 ]
    mass: 22.989769
    reduced_to: 4
  - symbol: O  # 5
    coordinates: [  0.573898846575400,  0.042825888235010,  0.410527166975000 ]
    mass: 15.999400
    reduced_to: 5
  - symbol: O  # 6
    coordinates: [  0.426101153424600,  0.957174111764990,  0.589472833025000 ]
    mass: 15.999400
    reduced_to: 6
  - symbol: O  # 7
    coordinates: [  0.768412335539800,  0.904097107407990,  0.093195576348940 ]
    mass: 15.999400
    reduced_to: 7
  - symbol: O  # 8
    coordinates: [  0.231587664460200,  0.095902892592010,  0.906804423651060 ]
    mass: 15.999400
    reduced_to: 8
  - symbol: O  # 9
    coordinates: [  0.298121782143200,  0.641466777229600,  0.110571634306000 ]
    mass: 15.999400
    reduced_to: 9
  - symbol: O  # 10
    coordinates: [  0.701878217856800,  0.358533222770400,  0.889428365694000 ]
    mass: 15.999400
    reduced_to: 10
  - symbol: O  # 11
    coordinates: [  0.780620571558200,  0.626242711940200,  0.386365379082900 ]
    mass: 15.999400
    reduced_to: 11
  - symbol: O  # 12
    coordinates: [  0.219379428441800,  0.373757288059800,  0.613634620917100 ]
    mass: 15.999400
    reduced_to: 12
