nqpoint: 1      
natom:   12     
reciprocal_lattice:
- [   0.21089776,   0.00006709,   0.05822635 ] # a*
- [   0.01922917,   0.18107683,   0.04217627 ] # b*
- [  -0.00011377,  -0.00004993,   0.17133988 ] # c*
phonon:
- q-position: [    0.0000000,    0.0000000,    0.0000000 ]
  dynamical_matrix:
  - [    2.2925532383,   -0.0000000000,    0.3693741813,    0.0000000000,    0.2782258354,    0.0000000000,    0.0370485761,    0.0000000000,   -0.0313511285,    0.0000000000,   -0.0071221472,    0.0000000000,   -0.0557159856,    0.0000000000,   -0.0247333437,    0.0000000000,    0.0028589725,    0.0000000000,   -0.0406073173,    0.0000000000,    0.0152275646,    0.0000000000,   -0.0177733582,    0.0000000000,   -0.1256663806,    0.0000000000,    0.0283675687,    0.0000000000,   -0.0249792146,    0.0000000000,   -0.0886830591,    0.0000000000,    0.0239818231,    0.0000000000,    0.1083659769,    0.0000000000,   -0.9668512779,    0.0000000000,   -0.5890676003,    0.0000000000,    0.5992261435,    0.0000000000,   -0.0221013163,    0.0000000000,    0.0154262978,    0.0000000000,    0.0190456977,    0.0000000000,   -1.4197836090,    0.0000000000,   -0.3995641485,    0.0000000000,   -0.6861897268,    0.0000000000,   -0.0384043404,    0.0000000000,   -0.0036255106,    0.0000000000,   -0.0204169770,    0.0000000000,   -0.5095737790,    0.0000000000,    0.4461103684,    0.0000000000,   -0.3771430693,    0.0000000000,   -0.0120070751,    0.0000000000,    0.0105246180,    0.0000000000,    0.0156165757,    0.0000000000 ]
  - [    0.3693741813,   -0.0000000000,    1.9826513044,   -0.0000000000,   -0.6043223702,    0.0000000000,   -0.0313511285,    0.0000000000,   -0.1582695822,    0.0000000000,   -0.0567966121,    0.0000000000,   -0.0053197715,    0.0000000000,   -0.0766719833,    0.0000000000,   -0.0093706965,    0.0000000000,   -0.0051320676,    0.0000000000,    0.0144437864,    0.0000000000,    0.0310602343,    0.0000000000,    0.0680316232,    0.0000000000,   -0.5462469145,    0.0000000000,   -0.2281803661,    0.0000000000,    0.0110208962,    0.0000000000,    0.1202080848,    0.0000000000,    0.0364016668,    0.0000000000,   -0.5892446416,    0.0000000000,   -0.7263977892,    0.0000000000,    0.4937810958,    0.0000000000,   -0.0201724013,    0.0000000000,    0.0535282476,    0.0000000000,    0.0209592469,    0.0000000000,   -0.4226590798,    0.0000000000,   -0.3914146008,    0.0000000000,   -0.1770016835,    0.0000000000,    0.0350979757,    0.0000000000,    0.0389552506,    0.0000000000,    0.0484543483,    0.0000000000,    0.4455075120,    0.0000000000,   -1.1077935373,    0.0000000000,    0.7170016770,    0.0000000000,    0.0060170450,    0.0000000000,    0.0508269030,    0.0000000000,   -0.0025670344,    0.0000000000 ]
  - [    0.2782258354,   -0.0000000000,   -0.6043223702,   -0.0000000000,    1.9176527725,   -0.0000000000,   -0.0071221472,    0.0000000000,   -0.0567966121,    0.0000000000,   -0.1315770317,    0.0000000000,   -0.0052331077,    0.0000000000,    0.0074991366,    0.0000000000,    0.0324273028,    0.0000000000,   -0.0041535100,    0.0000000000,    0.0133803082,    0.0000000000,   -0.0720269848,    0.0000000000,   -0.0243536022,    0.0000000000,   -0.1676855554,    0.0000000000,   -0.2040853268,    0.0000000000,    0.1136168451,    0.0000000000,    0.0267595722,    0.0000000000,   -0.1201330786,    0.0000000000,    0.5979113473,    0.0000000000,    0.4749856407,    0.0000000000,   -0.7777533745,    0.0000000000,   -0.0013962001,    0.0000000000,   -0.0033206419,    0.0000000000,    0.0561929642,    0.0000000000,   -0.7032144416,    0.0000000000,   -0.1794558972,    0.0000000000,   -0.6645819696,    0.0000000000,    0.0248374722,    0.0000000000,    0.0300849668,    0.0000000000,    0.0480675324,    0.0000000000,   -0.3771888809,    0.0000000000,    0.7173311990,    0.0000000000,   -0.8613025026,    0.0000000000,   -0.0029016480,    0.0000000000,    0.0124837719,    0.0000000000,    0.0435972315,    0.0000000000 ]
  - [    0.0370485761,   -0.0000000000,   -0.0313511285,   -0.0000000000,   -0.0071221472,   -0.0000000000,    2.2925532383,   -0.0000000000,    0.3693741813,    0.0000000000,    0.2782258354,    0.0000000000,   -0.0406073173,    0.0000000000,    0.0152275646,    0.0000000000,   -0.0177733582,    0.0000000000,   -0.0557159856,    0.0000000000,   -0.0247333437,    0.0000000000,    0.0028589725,    0.0000000000,   -0.0886830591,    0.0000000000,    0.0239818231,    0.0000000000,    0.1083659769,    0.0000000000,   -0.1256663806,    0.0000000000,    0.0283675687,    0.0000000000,   -0.0249792146,    0.0000000000,   -0.0221013163,    0.0000000000,    0.0154262978,    0.0000000000,    0.0190456977,    0.0000000000,   -0.9668512779,    0.0000000000,   -0.5890676003,    0.0000000000,    0.5992261435,    0.0000000000,   -0.0384043404,    0.0000000000,   -0.0036255106,    0.0000000000,   -0.0204169770,    0.0000000000,   -1.4197836090,    0.0000000000,   -0.3995641485,    0.0000000000,   -0.6861897268,    0.0000000000,   -0.0120070751,    0.0000000000,    0.0105246180,    0.0000000000,    0.0156165757,    0.0000000000,   -0.5095737790,    0.0000000000,    0.4461103684,    0.0000000000,   -0.3771430693,    0.0000000000 ]
  - [   -0.0313511285,   -0.0000000000,   -0.1582695822,   -0.0000000000,   -0.0567966121,   -0.0000000000,    0.3693741813,   -0.0000000000,    1.9826513044,   -0.0000000000,   -0.6043223702,    0.0000000000,   -0.0051320676,    0.0000000000,    0.0144437864,    0.0000000000,    0.0310602343,    0.0000000000,   -0.0053197715,    0.0000000000,   -0.0766719833,    0.0000000000,   -0.0093706965,    0.0000000000,    0.0110208962,    0.0000000000,    0.1202080848,    0.0000000000,    0.0364016668,    0.0000000000,    0.0680316232,    0.0000000000,   -0.5462469145,    0.0000000000,   -0.2281803661,    0.0000000000,   -0.0201724013,    0.0000000000,    0.0535282476,    0.0000000000,    0.0209592469,    0.0000000000,   -0.5892446416,    0.0000000000,   -0.7263977892,    0.0000000000,    0.4937810958,    0.0000000000,    0.0350979757,    0.0000000000,    0.0389552506,    0.0000000000,    0.0484543483,    0.0000000000,   -0.4226590798,    0.0000000000,   -0.3914146008,    0.0000000000,   -0.1770016835,    0.0000000000,    0.0060170450,    0.0000000000,    0.0508269030,    0.0000000000,   -0.0025670344,    0.0000000000,    0.4455075120,    0.0000000000,   -1.1077935373,    0.0000000000,    0.7170016770,    0.0000000000 ]
  - [   -0.0071221472,   -0.0000000000,   -0.0567966121,   -0.0000000000,   -0.1315770317,   -0.0000000000,    0.2782258354,   -0.0000000000,   -0.6043223702,   -0.0000000000,    1.9176527725,   -0.0000000000,   -0.0041535100,    0.0000000000,    0.0133803082,    0.0000000000,   -0.0720269848,    0.0000000000,   -0.0052331077,    0.0000000000,    0.0074991366,    0.0000000000,    0.0324273028,    0.0000000000,    0.1136168451,    0.0000000000,    0.0267595722,    0.0000000000,   -0.1201330786,    0.0000000000,   -0.0243536022,    0.0000000000,   -0.1676855554,    0.0000000000,   -0.2040853268,    0.0000000000,   -0.0013962001,    0.0000000000,   -0.0033206419,    0.0000000000,    0.0561929642,    0.0000000000,    0.5979113473,    0.0000000000,    0.4749856407,    0.0000000000,   -0.7777533745,    0.0000000000,    0.0248374722,    0.0000000000,    0.0300849668,    0.0000000000,    0.0480675324,    0.0000000000,   -0.7032144416,    0.0000000000,   -0.1794558972,    0.0000000000,   -0.6645819696,    0.0000000000,   -0.0029016480,    0.0000000000,    0.0124837719,    0.0000000000,    0.0435972315,    0.0000000000,   -0.3771888809,    0.0000000000,    0.7173311990,    0.0000000000,   -0.8613025026,    0.0000000000 ]
  - [   -0.0557159856,   -0.0000000000,   -0.0053197715,   -0.0000000000,   -0.0052331077,   -0.0000000000,   -0.0406073173,   -0.0000000000,   -0.0051320676,   -0.0000000000,   -0.0041535100,   -0.0000000000,    0.0871700812,   -0.0000000000,    0.0302380260,    0.0000000000,    0.0039060489,    0.0000000000,    0.0041533063,    0.0000000000,    0.0005469670,    0.0000000000,    0.0033660635,    0.0000000000,    0.0067826916,    0.0000000000,   -0.0126938551,    0.0000000000,   -0.0023770046,    0.0000000000,    0.0043020936,    0.0000000000,    0.0072304614,    0.0000000000,    0.0011865783,    0.0000000000,    0.0002815440,    0.0000000000,   -0.0160081252,    0.0000000000,   -0.0110711182,    0.0000000000,   -0.0003355662,    0.0000000000,    0.0103032934,    0.0000000000,    0.0117810872,    0.0000000000,    0.0027079582,    0.0000000000,   -0.0252307799,    0.0000000000,    0.0117578250,    0.0000000000,   -0.0011428494,    0.0000000000,    0.0123920925,    0.0000000000,   -0.0127125166,    0.0000000000,    0.0070061715,    0.0000000000,    0.0025578593,    0.0000000000,    0.0061056687,    0.0000000000,    0.0072063810,    0.0000000000,   -0.0007320360,    0.0000000000,   -0.0001596709,    0.0000000000 ]
  - [   -0.0247333437,   -0.0000000000,   -0.0766719833,   -0.0000000000,    0.0074991366,   -0.0000000000,    0.0152275646,   -0.0000000000,    0.0144437864,   -0.0000000000,    0.0133803082,   -0.0000000000,    0.0302380260,   -0.0000000000,    0.1117712912,   -0.0000000000,   -0.0093814870,    0.0000000000,    0.0005469670,    0.0000000000,   -0.0066286759,    0.0000000000,   -0.0017796901,    0.0000000000,   -0.0063064063,    0.0000000000,    0.0227484703,    0.0000000000,    0.0082077437,    0.0000000000,   -0.0018756184,    0.0000000000,   -0.0090299311,    0.0000000000,   -0.0050582636,    0.0000000000,   -0.0057847618,    0.0000000000,   -0.0129628571,    0.0000000000,   -0.0212308564,    0.0000000000,    0.0054601949,    0.0000000000,   -0.0149658091,    0.0000000000,   -0.0113723390,    0.0000000000,   -0.0176140986,    0.0000000000,   -0.0204022962,    0.0000000000,    0.0109522977,    0.0000000000,    0.0017908226,    0.0000000000,   -0.0161624441,    0.0000000000,    0.0137049331,    0.0000000000,    0.0074895003,    0.0000000000,    0.0147731935,    0.0000000000,   -0.0101379313,    0.0000000000,   -0.0065040385,    0.0000000000,   -0.0018375649,    0.0000000000,   -0.0012294798,    0.0000000000 ]
  - [    0.0028589725,   -0.0000000000,   -0.0093706965,   -0.0000000000,    0.0324273028,   -0.0000000000,   -0.0177733582,   -0.0000000000,    0.0310602343,   -0.0000000000,   -0.0720269848,   -0.0000000000,    0.0039060489,   -0.0000000000,   -0.0093814870,   -0.0000000000,    0.1506666960,   -0.0000000000,    0.0033660635,    0.0000000000,   -0.0017796901,    0.0000000000,   -0.0130210027,    0.0000000000,   -0.0070824615,    0.0000000000,    0.0002957189,    0.0000000000,    0.0003223187,    0.0000000000,    0.0065075588,    0.0000000000,   -0.0040508399,    0.0000000000,    0.0016105947,    0.0000000000,   -0.0094869967,    0.0000000000,   -0.0129389807,    0.0000000000,   -0.0149513874,    0.0000000000,    0.0136346170,    0.0000000000,   -0.0199233162,    0.0000000000,   -0.0016363852,    0.0000000000,    0.0040315775,    0.0000000000,    0.0186525404,    0.0000000000,   -0.0144524890,    0.0000000000,   -0.0027918279,    0.0000000000,    0.0078975913,    0.0000000000,   -0.0151655254,    0.0000000000,    0.0007069251,    0.0000000000,    0.0041281205,    0.0000000000,   -0.0213875606,    0.0000000000,    0.0068047160,    0.0000000000,   -0.0114571798,    0.0000000000,   -0.0432450189,    0.0000000000 ]
  - [   -0.0406073173,   -0.0000000000,   -0.0051320676,   -0.0000000000,   -0.0041535100,   -0.0000000000,   -0.0557159856,   -0.0000000000,   -0.0053197715,   -0.0000000000,   -0.0052331077,   -0.0000000000,    0.0041533063,   -0.0000000000,    0.0005469670,   -0.0000000000,    0.0033660635,   -0.0000000000,    0.0871700812,   -0.0000000000,    0.0302380260,    0.0000000000,    0.0039060489,    0.0000000000,    0.0043020936,    0.0000000000,    0.0072304614,    0.0000000000,    0.0011865783,    0.0000000000,    0.0067826916,    0.0000000000,   -0.0126938551,    0.0000000000,   -0.0023770046,    0.0000000000,   -0.0003355662,    0.0000000000,    0.0103032934,    0.0000000000,    0.0117810872,    0.0000000000,    0.0002815440,    0.0000000000,   -0.0160081252,    0.0000000000,   -0.0110711182,    0.0000000000,   -0.0011428494,    0.0000000000,    0.0123920925,    0.0000000000,   -0.0127125166,    0.0000000000,    0.0027079582,    0.0000000000,   -0.0252307799,    0.0000000000,    0.0117578250,    0.0000000000,    0.0072063810,    0.0000000000,   -0.0007320360,    0.0000000000,   -0.0001596709,    0.0000000000,    0.0070061715,    0.0000000000,    0.0025578593,    0.0000000000,    0.0061056687,    0.0000000000 ]
  - [    0.0152275646,   -0.0000000000,    0.0144437864,   -0.0000000000,    0.0133803082,   -0.0000000000,   -0.0247333437,   -0.0000000000,   -0.0766719833,   -0.0000000000,    0.0074991366,   -0.0000000000,    0.0005469670,   -0.0000000000,   -0.0066286759,   -0.0000000000,   -0.0017796901,   -0.0000000000,    0.0302380260,   -0.0000000000,    0.1117712912,   -0.0000000000,   -0.0093814870,    0.0000000000,   -0.0018756184,    0.0000000000,   -0.0090299311,    0.0000000000,   -0.0050582636,    0.0000000000,   -0.0063064063,    0.0000000000,    0.0227484703,    0.0000000000,    0.0082077437,    0.0000000000,    0.0054601949,    0.0000000000,   -0.0149658091,    0.0000000000,   -0.0113723390,    0.0000000000,   -0.0057847618,    0.0000000000,   -0.0129628571,    0.0000000000,   -0.0212308564,    0.0000000000,    0.0017908226,    0.0000000000,   -0.0161624441,    0.0000000000,    0.0137049331,    0.0000000000,   -0.0176140986,    0.0000000000,   -0.0204022962,    0.0000000000,    0.0109522977,    0.0000000000,   -0.0065040385,    0.0000000000,   -0.0018375649,    0.0000000000,   -0.0012294798,    0.0000000000,    0.0074895003,    0.0000000000,    0.0147731935,    0.0000000000,   -0.0101379313,    0.0000000000 ]
  - [   -0.0177733582,   -0.0000000000,    0.0310602343,   -0.0000000000,   -0.0720269848,   -0.0000000000,    0.0028589725,   -0.0000000000,   -0.0093706965,   -0.0000000000,    0.0324273028,   -0.0000000000,    0.0033660635,   -0.0000000000,   -0.0017796901,   -0.0000000000,   -0.0130210027,   -0.0000000000,    0.0039060489,   -0.0000000000,   -0.0093814870,   -0.0000000000,    0.1506666960,   -0.0000000000,    0.0065075588,    0.0000000000,   -0.0040508399,    0.0000000000,    0.0016105947,    0.0000000000,   -0.0070824615,    0.0000000000,    0.0002957189,    0.0000000000,    0.0003223187,    0.0000000000,    0.0136346170,    0.0000000000,   -0.0199233162,    0.0000000000,   -0.0016363852,    0.0000000000,   -0.0094869967,    0.0000000000,   -0.0129389807,    0.0000000000,   -0.0149513874,    0.0000000000,   -0.0027918279,    0.0000000000,    0.0078975913,    0.0000000000,   -0.0151655254,    0.0000000000,    0.0040315775,    0.0000000000,    0.0186525404,    0.0000000000,   -0.0144524890,    0.0000000000,    0.0068047160,    0.0000000000,   -0.0114571798,    0.0000000000,   -0.0432450189,    0.0000000000,    0.0007069251,    0.0000000000,    0.0041281205,    0.0000000000,   -0.0213875606,    0.0000000000 ]
  - [   -0.1256663806,   -0.0000000000,    0.0680316232,   -0.0000000000,   -0.0243536022,   -0.0000000000,   -0.0886830591,   -0.0000000000,    0.0110208962,   -0.0000000000,    0.1136168451,   -0.0000000000,    0.0067826916,   -0.0000000000,   -0.0063064063,   -0.0000000000,   -0.0070824615,   -0.0000000000,    0.0043020936,   -0.0000000000,   -0.0018756184,   -0.0000000000,    0.0065075588,   -0.0000000000,    0.6267218659,   -0.0000000000,    0.1340699098,    0.0000000000,   -0.4377239395,    0.0000000000,   -0.2954452080,    0.0000000000,   -0.2600089241,    0.0000000000,    0.2217697754,    0.0000000000,   -0.0918422727,    0.0000000000,    0.0137132906,    0.0000000000,    0.1361784408,    0.0000000000,    0.0258262020,    0.0000000000,    0.0302466579,    0.0000000000,   -0.0050273951,    0.0000000000,    0.0124941701,    0.0000000000,   -0.0790732415,    0.0000000000,   -0.0595854138,    0.0000000000,    0.0101426943,    0.0000000000,   -0.0044680760,    0.0000000000,   -0.0157867909,    0.0000000000,    0.0010747027,    0.0000000000,    0.0749964830,    0.0000000000,    0.0548663946,    0.0000000000,    0.0011381798,    0.0000000000,   -0.0113144470,    0.0000000000,   -0.0202546842,    0.0000000000 ]
  - [    0.0283675687,   -0.0000000000,   -0.5462469145,   -0.0000000000,   -0.1676855554,   -0.0000000000,    0.0239818231,   -0.0000000000,    0.1202080848,   -0.0000000000,    0.0267595722,   -0.0000000000,   -0.0126938551,   -0.0000000000,    0.0227484703,   -0.0000000000,    0.0002957189,   -0.0000000000,    0.0072304614,   -0.0000000000,   -0.0090299311,   -0.0000000000,   -0.0040508399,   -0.0000000000,    0.1340699098,   -0.0000000000,    1.2844969970,   -0.0000000000,    0.2167830246,    0.0000000000,   -0.2600089241,    0.0000000000,   -0.5205399320,    0.0000000000,    0.1617837523,    0.0000000000,   -0.0625645581,    0.0000000000,    0.0475034103,    0.0000000000,    0.0819316969,    0.0000000000,    0.0447082363,    0.0000000000,   -0.0184285915,    0.0000000000,   -0.0590392003,    0.0000000000,    0.0104181948,    0.0000000000,   -0.0392512654,    0.0000000000,   -0.0822538904,    0.0000000000,   -0.0047877716,    0.0000000000,   -0.0201133867,    0.0000000000,   -0.0257865911,    0.0000000000,    0.0627504350,    0.0000000000,   -0.1188060818,    0.0000000000,   -0.0716133467,    0.0000000000,    0.0077501462,    0.0000000000,   -0.0284429554,    0.0000000000,   -0.0177787087,    0.0000000000 ]
  - [   -0.0249792146,   -0.0000000000,   -0.2281803661,   -0.0000000000,   -0.2040853268,   -0.0000000000,    0.1083659769,   -0.0000000000,    0.0364016668,   -0.0000000000,   -0.1201330786,   -0.0000000000,   -0.0023770046,   -0.0000000000,    0.0082077437,   -0.0000000000,    0.0003223187,   -0.0000000000,    0.0011865783,   -0.0000000000,   -0.0050582636,   -0.0000000000,    0.0016105947,   -0.0000000000,   -0.4377239395,   -0.0000000000,    0.2167830246,   -0.0000000000,    0.9174643267,   -0.0000000000,    0.2217697754,    0.0000000000,    0.1617837523,    0.0000000000,   -0.2920284303,    0.0000000000,    0.1030764360,    0.0000000000,   -0.0064152311,    0.0000000000,   -0.1170952660,    0.0000000000,    0.0017002595,    0.0000000000,   -0.0493725426,    0.0000000000,   -0.0228597999,    0.0000000000,    0.0195507837,    0.0000000000,   -0.1002818502,    0.0000000000,   -0.0627645759,    0.0000000000,   -0.0029597789,    0.0000000000,    0.0002350942,    0.0000000000,    0.0117484858,    0.0000000000,   -0.0069984805,    0.0000000000,    0.0512291874,    0.0000000000,    0.0118919206,    0.0000000000,   -0.0148642443,    0.0000000000,   -0.0064956149,    0.0000000000,    0.0101281299,    0.0000000000 ]
  - [   -0.0886830591,   -0.0000000000,    0.0110208962,   -0.0000000000,    0.1136168451,   -0.0000000000,   -0.1256663806,   -0.0000000000,    0.0680316232,   -0.0000000000,   -0.0243536022,   -0.0000000000,    0.0043020936,   -0.0000000000,   -0.0018756184,   -0.0000000000,    0.0065075588,   -0.0000000000,    0.0067826916,   -0.0000000000,   -0.0063064063,   -0.0000000000,   -0.0070824615,   -0.0000000000,   -0.2954452080,   -0.0000000000,   -0.2600089241,   -0.0000000000,    0.2217697754,   -0.0000000000,    0.6267218659,   -0.0000000000,    0.1340699098,    0.0000000000,   -0.4377239395,    0.0000000000,    0.0258262020,    0.0000000000,    0.0302466579,    0.0000000000,   -0.0050273951,    0.0000000000,   -0.0918422727,    0.0000000000,    0.0137132906,    0.0000000000,    0.1361784408,    0.0000000000,    0.0101426943,    0.0000000000,   -0.0044680760,    0.0000000000,   -0.0157867909,    0.0000000000,    0.0124941701,    0.0000000000,   -0.0790732415,    0.0000000000,   -0.0595854138,    0.0000000000,    0.0011381798,    0.0000000000,   -0.0113144470,    0.0000000000,   -0.0202546842,    0.0000000000,    0.0010747027,    0.0000000000,    0.0749964830,    0.0000000000,    0.0548663946,    0.0000000000 ]
  - [    0.0239818231,   -0.0000000000,    0.1202080848,   -0.0000000000,    0.0267595722,   -0.0000000000,    0.0283675687,   -0.0000000000,   -0.5462469145,   -0.0000000000,   -0.1676855554,   -0.0000000000,    0.0072304614,   -0.0000000000,   -0.0090299311,   -0.0000000000,   -0.0040508399,   -0.0000000000,   -0.0126938551,   -0.0000000000,    0.0227484703,   -0.0000000000,    0.0002957189,   -0.0000000000,   -0.2600089241,   -0.0000000000,   -0.5205399320,   -0.0000000000,    0.1617837523,   -0.0000000000,    0.1340699098,   -0.0000000000,    1.2844969970,   -0.0000000000,    0.2167830246,    0.0000000000,    0.0447082363,    0.0000000000,   -0.0184285915,    0.0000000000,   -0.0590392003,    0.0000000000,   -0.0625645581,    0.0000000000,    0.0475034103,    0.0000000000,    0.0819316969,    0.0000000000,   -0.0047877716,    0.0000000000,   -0.0201133867,    0.0000000000,   -0.0257865911,    0.0000000000,    0.0104181948,    0.0000000000,   -0.0392512654,    0.0000000000,   -0.0822538904,    0.0000000000,    0.0077501462,    0.0000000000,   -0.0284429554,    0.0000000000,   -0.0177787087,    0.0000000000,    0.0627504350,    0.0000000000,   -0.1188060818,    0.0000000000,   -0.0716133467,    0.0000000000 ]
  - [    0.1083659769,   -0.0000000000,    0.0364016668,   -0.0000000000,   -0.1201330786,   -0.0000000000,   -0.0249792146,   -0.0000000000,   -0.2281803661,   -0.0000000000,   -0.2040853268,   -0.0000000000,    0.0011865783,   -0.0000000000,   -0.0050582636,   -0.0000000000,    0.0016105947,   -0.0000000000,   -0.0023770046,   -0.0000000000,    0.0082077437,   -0.0000000000,    0.0003223187,   -0.0000000000,    0.2217697754,   -0.0000000000,    0.1617837523,   -0.0000000000,   -0.2920284303,   -0.0000000000,   -0.4377239395,   -0.0000000000,    0.2167830246,   -0.0000000000,    0.9174643267,   -0.0000000000,    0.0017002595,    0.0000000000,   -0.0493725426,    0.0000000000,   -0.0228597999,    0.0000000000,    0.1030764360,    0.0000000000,   -0.0064152311,    0.0000000000,   -0.1170952660,    0.0000000000,   -0.0029597789,    0.0000000000,    0.0002350942,    0.0000000000,    0.0117484858,    0.0000000000,    0.0195507837,    0.0000000000,   -0.1002818502,    0.0000000000,   -0.0627645759,    0.0000000000,   -0.0148642443,    0.0000000000,   -0.0064956149,    0.0000000000,    0.0101281299,    0.0000000000,   -0.0069984805,    0.0000000000,    0.0512291874,    0.0000000000,    0.0118919206,    0.0000000000 ]
  - [   -0.9668512779,   -0.0000000000,   -0.5892446416,   -0.0000000000,    0.5979113473,   -0.0000000000,   -0.0221013163,   -0.0000000000,   -0.0201724013,   -0.0000000000,   -0.0013962001,   -0.0000000000,    0.0002815440,   -0.0000000000,   -0.0057847618,   -0.0000000000,   -0.0094869967,   -0.0000000000,   -0.0003355662,   -0.0000000000,    0.0054601949,   -0.0000000000,    0.0136346170,   -0.0000000000,   -0.0918422727,   -0.0000000000,   -0.0625645581,   -0.0000000000,    0.1030764360,   -0.0000000000,    0.0258262020,   -0.0000000000,    0.0447082363,   -0.0000000000,    0.0017002595,   -0.0000000000,    1.5622734267,   -0.0000000000,    0.9106528691,    0.0000000000,   -0.9989422610,    0.0000000000,   -0.0333450450,    0.0000000000,    0.0145203910,    0.0000000000,   -0.0018272249,    0.0000000000,   -0.1242367924,    0.0000000000,   -0.0928128849,    0.0000000000,    0.0738492400,    0.0000000000,    0.0123211951,    0.0000000000,    0.0026937329,    0.0000000000,    0.0136922862,    0.0000000000,    0.0476798192,    0.0000000000,    0.0435838871,    0.0000000000,   -0.0339712615,    0.0000000000,    0.0021533425,    0.0000000000,    0.0030954597,    0.0000000000,   -0.0061465796,    0.0000000000 ]
  - [   -0.5890676003,   -0.0000000000,   -0.7263977892,   -0.0000000000,    0.4749856407,   -0.0000000000,    0.0154262978,   -0.0000000000,    0.0535282476,   -0.0000000000,   -0.0033206419,   -0.0000000000,   -0.0160081252,   -0.0000000000,   -0.0129628571,   -0.0000000000,   -0.0129389807,   -0.0000000000,    0.0103032934,   -0.0000000000,   -0.0149658091,   -0.0000000000,   -0.0199233162,   -0.0000000000,    0.0137132906,   -0.0000000000,    0.0475034103,   -0.0000000000,   -0.0064152311,   -0.0000000000,    0.0302466579,   -0.0000000000,   -0.0184285915,   -0.0000000000,   -0.0493725426,   -0.0000000000,    0.9106528691,   -0.0000000000,    1.1214493499,   -0.0000000000,   -0.7333843966,    0.0000000000,    0.0145203910,    0.0000000000,   -0.0376081274,    0.0000000000,    0.0203687126,    0.0000000000,   -0.0500950362,    0.0000000000,    0.0020435651,    0.0000000000,    0.0379709658,    0.0000000000,   -0.0183010223,    0.0000000000,   -0.0746008956,    0.0000000000,   -0.0051517475,    0.0000000000,   -0.0797528384,    0.0000000000,   -0.0359319022,    0.0000000000,    0.1065225350,    0.0000000000,   -0.0016239724,    0.0000000000,   -0.0178586218,    0.0000000000,    0.0017410980,    0.0000000000 ]
  - [    0.5992261435,   -0.0000000000,    0.4937810958,   -0.0000000000,   -0.7777533745,   -0.0000000000,    0.0190456977,   -0.0000000000,    0.0209592469,   -0.0000000000,    0.0561929642,   -0.0000000000,   -0.0110711182,   -0.0000000000,   -0.0212308564,   -0.0000000000,   -0.0149513874,   -0.0000000000,    0.0117810872,   -0.0000000000,   -0.0113723390,   -0.0000000000,   -0.0016363852,   -0.0000000000,    0.1361784408,   -0.0000000000,    0.0819316969,   -0.0000000000,   -0.1170952660,   -0.0000000000,   -0.0050273951,   -0.0000000000,   -0.0590392003,   -0.0000000000,   -0.0228597999,   -0.0000000000,   -0.9989422610,   -0.0000000000,   -0.7333843966,   -0.0000000000,    1.2126249526,   -0.0000000000,   -0.0018272249,    0.0000000000,    0.0203687126,    0.0000000000,   -0.0373125845,    0.0000000000,   -0.0618974407,    0.0000000000,   -0.0431736555,    0.0000000000,    0.0704242794,    0.0000000000,   -0.0212644340,    0.0000000000,   -0.0255168718,    0.0000000000,   -0.0339262431,    0.0000000000,    0.0796677089,    0.0000000000,    0.0723377009,    0.0000000000,   -0.0113196140,    0.0000000000,   -0.0032966733,    0.0000000000,   -0.0035558282,    0.0000000000,   -0.0198122146,    0.0000000000 ]
  - [   -0.0221013163,   -0.0000000000,   -0.0201724013,   -0.0000000000,   -0.0013962001,   -0.0000000000,   -0.9668512779,   -0.0000000000,   -0.5892446416,   -0.0000000000,    0.5979113473,   -0.0000000000,   -0.0003355662,   -0.0000000000,    0.0054601949,   -0.0000000000,    0.0136346170,   -0.0000000000,    0.0002815440,   -0.0000000000,   -0.0057847618,   -0.0000000000,   -0.0094869967,   -0.0000000000,    0.0258262020,   -0.0000000000,    0.0447082363,   -0.0000000000,    0.0017002595,   -0.0000000000,   -0.0918422727,   -0.0000000000,   -0.0625645581,   -0.0000000000,    0.1030764360,   -0.0000000000,   -0.0333450450,   -0.0000000000,    0.0145203910,   -0.0000000000,   -0.0018272249,   -0.0000000000,    1.5622734267,   -0.0000000000,    0.9106528691,    0.0000000000,   -0.9989422610,    0.0000000000,    0.0123211951,    0.0000000000,    0.0026937329,    0.0000000000,    0.0136922862,    0.0000000000,   -0.1242367924,    0.0000000000,   -0.0928128849,    0.0000000000,    0.0738492400,    0.0000000000,    0.0021533425,    0.0000000000,    0.0030954597,    0.0000000000,   -0.0061465796,    0.0000000000,    0.0476798192,    0.0000000000,    0.0435838871,    0.0000000000,   -0.0339712615,    0.0000000000 ]
  - [    0.0154262978,   -0.0000000000,    0.0535282476,   -0.0000000000,   -0.0033206419,   -0.0000000000,   -0.5890676003,   -0.0000000000,   -0.7263977892,   -0.0000000000,    0.4749856407,   -0.0000000000,    0.0103032934,   -0.0000000000,   -0.0149658091,   -0.0000000000,   -0.0199233162,   -0.0000000000,   -0.0160081252,   -0.0000000000,   -0.0129628571,   -0.0000000000,   -0.0129389807,   -0.0000000000,    0.0302466579,   -0.0000000000,   -0.0184285915,   -0.0000000000,   -0.0493725426,   -0.0000000000,    0.0137132906,   -0.0000000000,    0.0475034103,   -0.0000000000,   -0.0064152311,   -0.0000000000,    0.0145203910,   -0.0000000000,   -0.0376081274,   -0.0000000000,    0.0203687126,   -0.0000000000,    0.9106528691,   -0.0000000000,    1.1214493499,   -0.0000000000,   -0.7333843966,    0.0000000000,   -0.0183010223,    0.0000000000,   -0.0746008956,    0.0000000000,   -0.0051517475,    0.0000000000,   -0.0500950362,    0.0000000000,    0.0020435651,    0.0000000000,    0.0379709658,    0.0000000000,   -0.0016239724,    0.0000000000,   -0.0178586218,    0.0000000000,    0.0017410980,    0.0000000000,   -0.0797528384,    0.0000000000,   -0.0359319022,    0.0000000000,    0.1065225350,    0.0000000000 ]
  - [    0.0190456977,   -0.0000000000,    0.0209592469,   -0.0000000000,    0.0561929642,   -0.0000000000,    0.5992261435,   -0.0000000000,    0.4937810958,   -0.0000000000,   -0.7777533745,   -0.0000000000,    0.0117810872,   -0.0000000000,   -0.0113723390,   -0.0000000000,   -0.0016363852,   -0.0000000000,   -0.0110711182,   -0.0000000000,   -0.0212308564,   -0.0000000000,   -0.0149513874,   -0.0000000000,   -0.0050273951,   -0.0000000000,   -0.0590392003,   -0.0000000000,   -0.0228597999,   -0.0000000000,    0.1361784408,   -0.0000000000,    0.0819316969,   -0.0000000000,   -0.1170952660,   -0.0000000000,   -0.0018272249,   -0.0000000000,    0.0203687126,   -0.0000000000,   -0.0373125845,   -0.0000000000,   -0.9989422610,   -0.0000000000,   -0.7333843966,   -0.0000000000,    1.2126249526,   -0.0000000000,   -0.0212644340,    0.0000000000,   -0.0255168718,    0.0000000000,   -0.0339262431,    0.0000000000,   -0.0618974407,    0.0000000000,   -0.0431736555,    0.0000000000,    0.0704242794,    0.0000000000,   -0.0032966733,    0.0000000000,   -0.0035558282,    0.0000000000,   -0.0198122146,    0.0000000000,    0.0796677089,    0.0000000000,    0.0723377009,    0.0000000000,   -0.0113196140,    0.0000000000 ]