
.Version 8.4.2 of ABINIT 
.(MPI version, prepared for a x86_64_linux_gnu10.1 computer) 

.Copyright (C) 1998-2017 ABINIT group . 
 ABINIT comes with ABSOLUTELY NO WARRANTY.
 It is free software, and you are welcome to redistribute it
 under certain conditions (GNU General Public License,
 see ~abinit/COPYING or http://www.gnu.org/copyleft/gpl.txt).

 ABINIT is a project of the Universite Catholique de Louvain,
 Corning Inc. and other collaborators, see ~abinit/doc/developers/contributors.txt .
 Please read ~abinit/doc/users/acknowledgments.html for suggested
 acknowledgments of the ABINIT effort.
 For more information, see http://www.abinit.org .

.Starting date : Wed 10 Jun 2020.
- ( at 09h55 )
  
- The starting date is more than 2 years after the initial release
- of this version of ABINIT, namely Jun 2017.
- Note that the use beyond 3 years after the release will not be supported.
- Action: please, switch to a more recent version of ABINIT.

- input  file    -> Na2SO42.in
- output file    -> Na2SO42.out
- root for input  files -> Na2SO42_i
- root for output files -> Na2SO42_0


 DATASET    1 : space group P-1 (#  2); Bravais aP (primitive triclinic)
================================================================================
 Values of the parameters that define the memory need for DATASET  1.
     intxc =       0    ionmov =       0      iscf =       5    lmnmax =       2
     lnmax =       2     mgfft =      72  mpssoang =       3    mqgrid =    3093
     natom =      12  nloc_mem =       1    nspden =       1   nspinor =       1
    nsppol =       1      nsym =       2    n1xccc =    2501    ntypat =       3
    occopt =       7   xclevel =       2
-    mband =          37        mffmem =           1         mkmem =          27
       mpw =       12430          nfft =      233280          nkpt =         105
================================================================================
P This job should need less than                     259.480 Mbytes of memory.
  Rough estimation (10% accuracy) of disk space for files :
_ WF disk file :    736.857 Mbytes ; DEN or POT disk file :      1.782 Mbytes.
================================================================================


 DATASET    2 : space group P-1 (#  2); Bravais aP (primitive triclinic)
================================================================================
 Values of the parameters that define the memory need for DATASET  2 (RF).
     intxc =       0      iscf =      -3    lmnmax =       2     lnmax =       2
     mgfft =      72  mpssoang =       3    mqgrid =    3093     natom =      12
  nloc_mem =       1    nspden =       1   nspinor =       1    nsppol =       1
      nsym =       2    n1xccc =    2501    ntypat =       3    occopt =       7
   xclevel =       2
-    mband =          37        mffmem =           1         mkmem =          28
-   mkqmem =          28        mk1mem =          28           mpw =       12430
      nfft =      233280          nkpt =         105
================================================================================
P This job should need less than                     651.892 Mbytes of memory.
  Rough estimation (10% accuracy) of disk space for files :
_ WF disk file :    736.857 Mbytes ; DEN or POT disk file :      1.782 Mbytes.
================================================================================


 DATASET    3 : space group P-1 (#  2); Bravais aP (primitive triclinic)
================================================================================
 Values of the parameters that define the memory need for DATASET  3 (RF).
     intxc =       0      iscf =       5    lmnmax =       2     lnmax =       2
     mgfft =      72  mpssoang =       3    mqgrid =    3093     natom =      12
  nloc_mem =       1    nspden =       1   nspinor =       1    nsppol =       1
      nsym =       2    n1xccc =    2501    ntypat =       3    occopt =       7
   xclevel =       2
-    mband =          37        mffmem =           1         mkmem =          28
-   mkqmem =          28        mk1mem =          28           mpw =       12430
      nfft =      233280          nkpt =         105
================================================================================
P This job should need less than                     669.690 Mbytes of memory.
  Rough estimation (10% accuracy) of disk space for files :
_ WF disk file :    736.857 Mbytes ; DEN or POT disk file :      1.782 Mbytes.
================================================================================

--------------------------------------------------------------------------------
------------- Echo of variables that govern the present computation ------------
--------------------------------------------------------------------------------
-
- outvars: echo of selected default values                                      
-   iomode0 =  0 , fftalg0 =312 , wfoptalg0 =  0
-
- outvars: echo of global parameters not present in the input file              
-  max_nthreads =    0
-
 -outvars: echo values of preprocessed input variables --------
            acell      9.0328907580E+00  9.0328907580E+00  9.0328907580E+00 Bohr
              amu      3.20660000E+01  2.29897680E+01  1.59994000E+01
        autoparal           1
           diemac      9.00000000E+00
             ecut      4.00000000E+01 Hartree
-          fftalg         312
           getddk1          0
           getddk2          0
           getddk3          2
           getwfk1          0
           getwfk2          1
           getwfk3          1
             iscf1          5
             iscf2         -3
             iscf3          5
              ixc          11
           jdtset        1    2    3
              kpt      7.14285714E-02  8.33333333E-02  1.00000000E-01
                       2.14285714E-01  8.33333333E-02  1.00000000E-01
                       3.57142857E-01  8.33333333E-02  1.00000000E-01
                       5.00000000E-01  8.33333333E-02  1.00000000E-01
                      -3.57142857E-01  8.33333333E-02  1.00000000E-01
                      -2.14285714E-01  8.33333333E-02  1.00000000E-01
                      -7.14285714E-02  8.33333333E-02  1.00000000E-01
                       7.14285714E-02  2.50000000E-01  1.00000000E-01
                       2.14285714E-01  2.50000000E-01  1.00000000E-01
                       3.57142857E-01  2.50000000E-01  1.00000000E-01
                       5.00000000E-01  2.50000000E-01  1.00000000E-01
                      -3.57142857E-01  2.50000000E-01  1.00000000E-01
                      -2.14285714E-01  2.50000000E-01  1.00000000E-01
                      -7.14285714E-02  2.50000000E-01  1.00000000E-01
                       7.14285714E-02  4.16666667E-01  1.00000000E-01
                       2.14285714E-01  4.16666667E-01  1.00000000E-01
                       3.57142857E-01  4.16666667E-01  1.00000000E-01
                       5.00000000E-01  4.16666667E-01  1.00000000E-01
                      -3.57142857E-01  4.16666667E-01  1.00000000E-01
                      -2.14285714E-01  4.16666667E-01  1.00000000E-01
                      -7.14285714E-02  4.16666667E-01  1.00000000E-01
                       7.14285714E-02 -4.16666667E-01  1.00000000E-01
                       2.14285714E-01 -4.16666667E-01  1.00000000E-01
                       3.57142857E-01 -4.16666667E-01  1.00000000E-01
                       5.00000000E-01 -4.16666667E-01  1.00000000E-01
                      -3.57142857E-01 -4.16666667E-01  1.00000000E-01
                      -2.14285714E-01 -4.16666667E-01  1.00000000E-01
                      -7.14285714E-02 -4.16666667E-01  1.00000000E-01
                       7.14285714E-02 -2.50000000E-01  1.00000000E-01
                       2.14285714E-01 -2.50000000E-01  1.00000000E-01
                       3.57142857E-01 -2.50000000E-01  1.00000000E-01
                       5.00000000E-01 -2.50000000E-01  1.00000000E-01
                      -3.57142857E-01 -2.50000000E-01  1.00000000E-01
                      -2.14285714E-01 -2.50000000E-01  1.00000000E-01
                      -7.14285714E-02 -2.50000000E-01  1.00000000E-01
                       7.14285714E-02 -8.33333333E-02  1.00000000E-01
                       2.14285714E-01 -8.33333333E-02  1.00000000E-01
                       3.57142857E-01 -8.33333333E-02  1.00000000E-01
                       5.00000000E-01 -8.33333333E-02  1.00000000E-01
                      -3.57142857E-01 -8.33333333E-02  1.00000000E-01
                      -2.14285714E-01 -8.33333333E-02  1.00000000E-01
                      -7.14285714E-02 -8.33333333E-02  1.00000000E-01
                       7.14285714E-02  8.33333333E-02  3.00000000E-01
                       2.14285714E-01  8.33333333E-02  3.00000000E-01
                       3.57142857E-01  8.33333333E-02  3.00000000E-01
                       5.00000000E-01  8.33333333E-02  3.00000000E-01
                      -3.57142857E-01  8.33333333E-02  3.00000000E-01
                      -2.14285714E-01  8.33333333E-02  3.00000000E-01
                      -7.14285714E-02  8.33333333E-02  3.00000000E-01
                       7.14285714E-02  2.50000000E-01  3.00000000E-01
                       outvar_i_n : Printing only first  50 k-points.
         kptrlatt        7    0    0      0    6    0      0    0    5
          kptrlen      5.75516084E+01
P           mkmem1         27
P           mkmem2         28
P           mkmem3         28
P          mkqmem1         27
P          mkqmem2         28
P          mkqmem3         28
P          mk1mem1         27
P          mk1mem2         28
P          mk1mem3         28
            natom          12
            nband          37
           nbdbuf1          0
           nbdbuf2          2
           nbdbuf3          2
           ndtset           3
            ngfft          54      60      72
             nkpt         105
-           npkpt1          4
-           npkpt2          1
-           npkpt3          1
             nqpt1          0
             nqpt2          1
             nqpt3          1
            nstep         150
             nsym           2
           ntypat           3
              occ      2.000000  2.000000  2.000000  2.000000  2.000000  2.000000
                       2.000000  2.000000  2.000000  2.000000  2.000000  2.000000
                       2.000000  2.000000  2.000000  2.000000  2.000000  2.000000
                       2.000000  2.000000  2.000000  2.000000  2.000000  2.000000
                       2.000000  2.000000  2.000000  2.000000  2.000000  2.000000
                       2.000000  0.000000  0.000000  0.000000  0.000000  0.000000
                       0.000000
                       2.000000  2.000000  2.000000  2.000000  2.000000  2.000000
                       2.000000  2.000000  2.000000  2.000000  2.000000  2.000000
                       2.000000  2.000000  2.000000  2.000000  2.000000  2.000000
                       2.000000  2.000000  2.000000  2.000000  2.000000  2.000000
                       2.000000  2.000000  2.000000  2.000000  2.000000  2.000000
                       2.000000  0.000000  0.000000  0.000000  0.000000  0.000000
                       0.000000
                       2.000000  2.000000  2.000000  2.000000  2.000000  2.000000
                       2.000000  2.000000  2.000000  2.000000  2.000000  2.000000
                       2.000000  2.000000  2.000000  2.000000  2.000000  2.000000
                       2.000000  2.000000  2.000000  2.000000  2.000000  2.000000
                       2.000000  2.000000  2.000000  2.000000  2.000000  2.000000
                       2.000000  0.000000  0.000000  0.000000  0.000000  0.000000
                       0.000000
                       2.000000  2.000000  2.000000  2.000000  2.000000  2.000000
                       2.000000  2.000000  2.000000  2.000000  2.000000  2.000000
                       2.000000  2.000000  2.000000  2.000000  2.000000  2.000000
                       2.000000  2.000000  2.000000  2.000000  2.000000  2.000000
                       2.000000  2.000000  2.000000  2.000000  2.000000  2.000000
                       2.000000  0.000000  0.000000  0.000000  0.000000  0.000000
                       0.000000
                       2.000000  2.000000  2.000000  2.000000  2.000000  2.000000
                       2.000000  2.000000  2.000000  2.000000  2.000000  2.000000
                       2.000000  2.000000  2.000000  2.000000  2.000000  2.000000
                       2.000000  2.000000  2.000000  2.000000  2.000000  2.000000
                       2.000000  2.000000  2.000000  2.000000  2.000000  2.000000
                       2.000000  0.000000  0.000000  0.000000  0.000000  0.000000
                       0.000000
                       2.000000  2.000000  2.000000  2.000000  2.000000  2.000000
                       2.000000  2.000000  2.000000  2.000000  2.000000  2.000000
                       2.000000  2.000000  2.000000  2.000000  2.000000  2.000000
                       2.000000  2.000000  2.000000  2.000000  2.000000  2.000000
                       2.000000  2.000000  2.000000  2.000000  2.000000  2.000000
                       2.000000  0.000000  0.000000  0.000000  0.000000  0.000000
                       0.000000
                       2.000000  2.000000  2.000000  2.000000  2.000000  2.000000
                       2.000000  2.000000  2.000000  2.000000  2.000000  2.000000
                       2.000000  2.000000  2.000000  2.000000  2.000000  2.000000
                       2.000000  2.000000  2.000000  2.000000  2.000000  2.000000
                       2.000000  2.000000  2.000000  2.000000  2.000000  2.000000
                       2.000000  0.000000  0.000000  0.000000  0.000000  0.000000
                       0.000000
                       2.000000  2.000000  2.000000  2.000000  2.000000  2.000000
                       2.000000  2.000000  2.000000  2.000000  2.000000  2.000000
                       2.000000  2.000000  2.000000  2.000000  2.000000  2.000000
                       2.000000  2.000000  2.000000  2.000000  2.000000  2.000000
                       2.000000  2.000000  2.000000  2.000000  2.000000  2.000000
                       2.000000  0.000000  0.000000  0.000000  0.000000  0.000000
                       0.000000
                       2.000000  2.000000  2.000000  2.000000  2.000000  2.000000
                       2.000000  2.000000  2.000000  2.000000  2.000000  2.000000
                       2.000000  2.000000  2.000000  2.000000  2.000000  2.000000
                       2.000000  2.000000  2.000000  2.000000  2.000000  2.000000
                       2.000000  2.000000  2.000000  2.000000  2.000000  2.000000
                       2.000000  0.000000  0.000000  0.000000  0.000000  0.000000
                       0.000000
                       2.000000  2.000000  2.000000  2.000000  2.000000  2.000000
                       2.000000  2.000000  2.000000  2.000000  2.000000  2.000000
                       2.000000  2.000000  2.000000  2.000000  2.000000  2.000000
                       2.000000  2.000000  2.000000  2.000000  2.000000  2.000000
                       2.000000  2.000000  2.000000  2.000000  2.000000  2.000000
                       2.000000  0.000000  0.000000  0.000000  0.000000  0.000000
                       0.000000
                       2.000000  2.000000  2.000000  2.000000  2.000000  2.000000
                       2.000000  2.000000  2.000000  2.000000  2.000000  2.000000
                       2.000000  2.000000  2.000000  2.000000  2.000000  2.000000
                       2.000000  2.000000  2.000000  2.000000  2.000000  2.000000
                       2.000000  2.000000  2.000000  2.000000  2.000000  2.000000
                       2.000000  0.000000  0.000000  0.000000  0.000000  0.000000
                       0.000000
                       2.000000  2.000000  2.000000  2.000000  2.000000  2.000000
                       2.000000  2.000000  2.000000  2.000000  2.000000  2.000000
                       2.000000  2.000000  2.000000  2.000000  2.000000  2.000000
                       2.000000  2.000000  2.000000  2.000000  2.000000  2.000000
                       2.000000  2.000000  2.000000  2.000000  2.000000  2.000000
                       2.000000  0.000000  0.000000  0.000000  0.000000  0.000000
                       0.000000
                       2.000000  2.000000  2.000000  2.000000  2.000000  2.000000
                       2.000000  2.000000  2.000000  2.000000  2.000000  2.000000
                       2.000000  2.000000  2.000000  2.000000  2.000000  2.000000
                       2.000000  2.000000  2.000000  2.000000  2.000000  2.000000
                       2.000000  2.000000  2.000000  2.000000  2.000000  2.000000
                       2.000000  0.000000  0.000000  0.000000  0.000000  0.000000
                       0.000000
                       2.000000  2.000000  2.000000  2.000000  2.000000  2.000000
                       2.000000  2.000000  2.000000  2.000000  2.000000  2.000000
                       2.000000  2.000000  2.000000  2.000000  2.000000  2.000000
                       2.000000  2.000000  2.000000  2.000000  2.000000  2.000000
                       2.000000  2.000000  2.000000  2.000000  2.000000  2.000000
                       2.000000  0.000000  0.000000  0.000000  0.000000  0.000000
                       0.000000
                       2.000000  2.000000  2.000000  2.000000  2.000000  2.000000
                       2.000000  2.000000  2.000000  2.000000  2.000000  2.000000
                       2.000000  2.000000  2.000000  2.000000  2.000000  2.000000
                       2.000000  2.000000  2.000000  2.000000  2.000000  2.000000
                       2.000000  2.000000  2.000000  2.000000  2.000000  2.000000
                       2.000000  0.000000  0.000000  0.000000  0.000000  0.000000
                       0.000000
                       2.000000  2.000000  2.000000  2.000000  2.000000  2.000000
                       2.000000  2.000000  2.000000  2.000000  2.000000  2.000000
                       2.000000  2.000000  2.000000  2.000000  2.000000  2.000000
                       2.000000  2.000000  2.000000  2.000000  2.000000  2.000000
                       2.000000  2.000000  2.000000  2.000000  2.000000  2.000000
                       2.000000  0.000000  0.000000  0.000000  0.000000  0.000000
                       0.000000
                       2.000000  2.000000  2.000000  2.000000  2.000000  2.000000
                       2.000000  2.000000  2.000000  2.000000  2.000000  2.000000
                       2.000000  2.000000  2.000000  2.000000  2.000000  2.000000
                       2.000000  2.000000  2.000000  2.000000  2.000000  2.000000
                       2.000000  2.000000  2.000000  2.000000  2.000000  2.000000
                       2.000000  0.000000  0.000000  0.000000  0.000000  0.000000
                       0.000000
                       2.000000  2.000000  2.000000  2.000000  2.000000  2.000000
                       2.000000  2.000000  2.000000  2.000000  2.000000  2.000000
                       2.000000  2.000000  2.000000  2.000000  2.000000  2.000000
                       2.000000  2.000000  2.000000  2.000000  2.000000  2.000000
                       2.000000  2.000000  2.000000  2.000000  2.000000  2.000000
                       2.000000  0.000000  0.000000  0.000000  0.000000  0.000000
                       0.000000
                       2.000000  2.000000  2.000000  2.000000  2.000000  2.000000
                       2.000000  2.000000  2.000000  2.000000  2.000000  2.000000
                       2.000000  2.000000  2.000000  2.000000  2.000000  2.000000
                       2.000000  2.000000  2.000000  2.000000  2.000000  2.000000
                       2.000000  2.000000  2.000000  2.000000  2.000000  2.000000
                       2.000000  0.000000  0.000000  0.000000  0.000000  0.000000
                       0.000000
                       2.000000  2.000000  2.000000  2.000000  2.000000  2.000000
                       2.000000  2.000000  2.000000  2.000000  2.000000  2.000000
                       2.000000  2.000000  2.000000  2.000000  2.000000  2.000000
                       2.000000  2.000000  2.000000  2.000000  2.000000  2.000000
                       2.000000  2.000000  2.000000  2.000000  2.000000  2.000000
                       2.000000  0.000000  0.000000  0.000000  0.000000  0.000000
                       0.000000
                       2.000000  2.000000  2.000000  2.000000  2.000000  2.000000
                       2.000000  2.000000  2.000000  2.000000  2.000000  2.000000
                       2.000000  2.000000  2.000000  2.000000  2.000000  2.000000
                       2.000000  2.000000  2.000000  2.000000  2.000000  2.000000
                       2.000000  2.000000  2.000000  2.000000  2.000000  2.000000
                       2.000000  0.000000  0.000000  0.000000  0.000000  0.000000
                       0.000000
                       2.000000  2.000000  2.000000  2.000000  2.000000  2.000000
                       2.000000  2.000000  2.000000  2.000000  2.000000  2.000000
                       2.000000  2.000000  2.000000  2.000000  2.000000  2.000000
                       2.000000  2.000000  2.000000  2.000000  2.000000  2.000000
                       2.000000  2.000000  2.000000  2.000000  2.000000  2.000000
                       2.000000  0.000000  0.000000  0.000000  0.000000  0.000000
                       0.000000
                       2.000000  2.000000  2.000000  2.000000  2.000000  2.000000
                       2.000000  2.000000  2.000000  2.000000  2.000000  2.000000
                       2.000000  2.000000  2.000000  2.000000  2.000000  2.000000
                       2.000000  2.000000  2.000000  2.000000  2.000000  2.000000
                       2.000000  2.000000  2.000000  2.000000  2.000000  2.000000
                       2.000000  0.000000  0.000000  0.000000  0.000000  0.000000
                       0.000000
                       2.000000  2.000000  2.000000  2.000000  2.000000  2.000000
                       2.000000  2.000000  2.000000  2.000000  2.000000  2.000000
                       2.000000  2.000000  2.000000  2.000000  2.000000  2.000000
                       2.000000  2.000000  2.000000  2.000000  2.000000  2.000000
                       2.000000  2.000000  2.000000  2.000000  2.000000  2.000000
                       2.000000  0.000000  0.000000  0.000000  0.000000  0.000000
                       0.000000
                       2.000000  2.000000  2.000000  2.000000  2.000000  2.000000
                       2.000000  2.000000  2.000000  2.000000  2.000000  2.000000
                       2.000000  2.000000  2.000000  2.000000  2.000000  2.000000
                       2.000000  2.000000  2.000000  2.000000  2.000000  2.000000
                       2.000000  2.000000  2.000000  2.000000  2.000000  2.000000
                       2.000000  0.000000  0.000000  0.000000  0.000000  0.000000
                       0.000000
                       2.000000  2.000000  2.000000  2.000000  2.000000  2.000000
                       2.000000  2.000000  2.000000  2.000000  2.000000  2.000000
                       2.000000  2.000000  2.000000  2.000000  2.000000  2.000000
                       2.000000  2.000000  2.000000  2.000000  2.000000  2.000000
                       2.000000  2.000000  2.000000  2.000000  2.000000  2.000000
                       2.000000  0.000000  0.000000  0.000000  0.000000  0.000000
                       0.000000
                       2.000000  2.000000  2.000000  2.000000  2.000000  2.000000
                       2.000000  2.000000  2.000000  2.000000  2.000000  2.000000
                       2.000000  2.000000  2.000000  2.000000  2.000000  2.000000
                       2.000000  2.000000  2.000000  2.000000  2.000000  2.000000
                       2.000000  2.000000  2.000000  2.000000  2.000000  2.000000
                       2.000000  0.000000  0.000000  0.000000  0.000000  0.000000
                       0.000000
                       2.000000  2.000000  2.000000  2.000000  2.000000  2.000000
                       2.000000  2.000000  2.000000  2.000000  2.000000  2.000000
                       2.000000  2.000000  2.000000  2.000000  2.000000  2.000000
                       2.000000  2.000000  2.000000  2.000000  2.000000  2.000000
                       2.000000  2.000000  2.000000  2.000000  2.000000  2.000000
                       2.000000  0.000000  0.000000  0.000000  0.000000  0.000000
                       0.000000
                       2.000000  2.000000  2.000000  2.000000  2.000000  2.000000
                       2.000000  2.000000  2.000000  2.000000  2.000000  2.000000
                       2.000000  2.000000  2.000000  2.000000  2.000000  2.000000
                       2.000000  2.000000  2.000000  2.000000  2.000000  2.000000
                       2.000000  2.000000  2.000000  2.000000  2.000000  2.000000
                       2.000000  0.000000  0.000000  0.000000  0.000000  0.000000
                       0.000000
                       2.000000  2.000000  2.000000  2.000000  2.000000  2.000000
                       2.000000  2.000000  2.000000  2.000000  2.000000  2.000000
                       2.000000  2.000000  2.000000  2.000000  2.000000  2.000000
                       2.000000  2.000000  2.000000  2.000000  2.000000  2.000000
                       2.000000  2.000000  2.000000  2.000000  2.000000  2.000000
                       2.000000  0.000000  0.000000  0.000000  0.000000  0.000000
                       0.000000
                       2.000000  2.000000  2.000000  2.000000  2.000000  2.000000
                       2.000000  2.000000  2.000000  2.000000  2.000000  2.000000
                       2.000000  2.000000  2.000000  2.000000  2.000000  2.000000
                       2.000000  2.000000  2.000000  2.000000  2.000000  2.000000
                       2.000000  2.000000  2.000000  2.000000  2.000000  2.000000
                       2.000000  0.000000  0.000000  0.000000  0.000000  0.000000
                       0.000000
                       2.000000  2.000000  2.000000  2.000000  2.000000  2.000000
                       2.000000  2.000000  2.000000  2.000000  2.000000  2.000000
                       2.000000  2.000000  2.000000  2.000000  2.000000  2.000000
                       2.000000  2.000000  2.000000  2.000000  2.000000  2.000000
                       2.000000  2.000000  2.000000  2.000000  2.000000  2.000000
                       2.000000  0.000000  0.000000  0.000000  0.000000  0.000000
                       0.000000
                       2.000000  2.000000  2.000000  2.000000  2.000000  2.000000
                       2.000000  2.000000  2.000000  2.000000  2.000000  2.000000
                       2.000000  2.000000  2.000000  2.000000  2.000000  2.000000
                       2.000000  2.000000  2.000000  2.000000  2.000000  2.000000
                       2.000000  2.000000  2.000000  2.000000  2.000000  2.000000
                       2.000000  0.000000  0.000000  0.000000  0.000000  0.000000
                       0.000000
                       2.000000  2.000000  2.000000  2.000000  2.000000  2.000000
                       2.000000  2.000000  2.000000  2.000000  2.000000  2.000000
                       2.000000  2.000000  2.000000  2.000000  2.000000  2.000000
                       2.000000  2.000000  2.000000  2.000000  2.000000  2.000000
                       2.000000  2.000000  2.000000  2.000000  2.000000  2.000000
                       2.000000  0.000000  0.000000  0.000000  0.000000  0.000000
                       0.000000
                       2.000000  2.000000  2.000000  2.000000  2.000000  2.000000
                       2.000000  2.000000  2.000000  2.000000  2.000000  2.000000
                       2.000000  2.000000  2.000000  2.000000  2.000000  2.000000
                       2.000000  2.000000  2.000000  2.000000  2.000000  2.000000
                       2.000000  2.000000  2.000000  2.000000  2.000000  2.000000
                       2.000000  0.000000  0.000000  0.000000  0.000000  0.000000
                       0.000000
                       2.000000  2.000000  2.000000  2.000000  2.000000  2.000000
                       2.000000  2.000000  2.000000  2.000000  2.000000  2.000000
                       2.000000  2.000000  2.000000  2.000000  2.000000  2.000000
                       2.000000  2.000000  2.000000  2.000000  2.000000  2.000000
                       2.000000  2.000000  2.000000  2.000000  2.000000  2.000000
                       2.000000  0.000000  0.000000  0.000000  0.000000  0.000000
                       0.000000
                       2.000000  2.000000  2.000000  2.000000  2.000000  2.000000
                       2.000000  2.000000  2.000000  2.000000  2.000000  2.000000
                       2.000000  2.000000  2.000000  2.000000  2.000000  2.000000
                       2.000000  2.000000  2.000000  2.000000  2.000000  2.000000
                       2.000000  2.000000  2.000000  2.000000  2.000000  2.000000
                       2.000000  0.000000  0.000000  0.000000  0.000000  0.000000
                       0.000000
                       2.000000  2.000000  2.000000  2.000000  2.000000  2.000000
                       2.000000  2.000000  2.000000  2.000000  2.000000  2.000000
                       2.000000  2.000000  2.000000  2.000000  2.000000  2.000000
                       2.000000  2.000000  2.000000  2.000000  2.000000  2.000000
                       2.000000  2.000000  2.000000  2.000000  2.000000  2.000000
                       2.000000  0.000000  0.000000  0.000000  0.000000  0.000000
                       0.000000
                       2.000000  2.000000  2.000000  2.000000  2.000000  2.000000
                       2.000000  2.000000  2.000000  2.000000  2.000000  2.000000
                       2.000000  2.000000  2.000000  2.000000  2.000000  2.000000
                       2.000000  2.000000  2.000000  2.000000  2.000000  2.000000
                       2.000000  2.000000  2.000000  2.000000  2.000000  2.000000
                       2.000000  0.000000  0.000000  0.000000  0.000000  0.000000
                       0.000000
                       2.000000  2.000000  2.000000  2.000000  2.000000  2.000000
                       2.000000  2.000000  2.000000  2.000000  2.000000  2.000000
                       2.000000  2.000000  2.000000  2.000000  2.000000  2.000000
                       2.000000  2.000000  2.000000  2.000000  2.000000  2.000000
                       2.000000  2.000000  2.000000  2.000000  2.000000  2.000000
                       2.000000  0.000000  0.000000  0.000000  0.000000  0.000000
                       0.000000
                       2.000000  2.000000  2.000000  2.000000  2.000000  2.000000
                       2.000000  2.000000  2.000000  2.000000  2.000000  2.000000
                       2.000000  2.000000  2.000000  2.000000  2.000000  2.000000
                       2.000000  2.000000  2.000000  2.000000  2.000000  2.000000
                       2.000000  2.000000  2.000000  2.000000  2.000000  2.000000
                       2.000000  0.000000  0.000000  0.000000  0.000000  0.000000
                       0.000000
                       2.000000  2.000000  2.000000  2.000000  2.000000  2.000000
                       2.000000  2.000000  2.000000  2.000000  2.000000  2.000000
                       2.000000  2.000000  2.000000  2.000000  2.000000  2.000000
                       2.000000  2.000000  2.000000  2.000000  2.000000  2.000000
                       2.000000  2.000000  2.000000  2.000000  2.000000  2.000000
                       2.000000  0.000000  0.000000  0.000000  0.000000  0.000000
                       0.000000
                       2.000000  2.000000  2.000000  2.000000  2.000000  2.000000
                       2.000000  2.000000  2.000000  2.000000  2.000000  2.000000
                       2.000000  2.000000  2.000000  2.000000  2.000000  2.000000
                       2.000000  2.000000  2.000000  2.000000  2.000000  2.000000
                       2.000000  2.000000  2.000000  2.000000  2.000000  2.000000
                       2.000000  0.000000  0.000000  0.000000  0.000000  0.000000
                       0.000000
                       2.000000  2.000000  2.000000  2.000000  2.000000  2.000000
                       2.000000  2.000000  2.000000  2.000000  2.000000  2.000000
                       2.000000  2.000000  2.000000  2.000000  2.000000  2.000000
                       2.000000  2.000000  2.000000  2.000000  2.000000  2.000000
                       2.000000  2.000000  2.000000  2.000000  2.000000  2.000000
                       2.000000  0.000000  0.000000  0.000000  0.000000  0.000000
                       0.000000
                       2.000000  2.000000  2.000000  2.000000  2.000000  2.000000
                       2.000000  2.000000  2.000000  2.000000  2.000000  2.000000
                       2.000000  2.000000  2.000000  2.000000  2.000000  2.000000
                       2.000000  2.000000  2.000000  2.000000  2.000000  2.000000
                       2.000000  2.000000  2.000000  2.000000  2.000000  2.000000
                       2.000000  0.000000  0.000000  0.000000  0.000000  0.000000
                       0.000000
                       2.000000  2.000000  2.000000  2.000000  2.000000  2.000000
                       2.000000  2.000000  2.000000  2.000000  2.000000  2.000000
                       2.000000  2.000000  2.000000  2.000000  2.000000  2.000000
                       2.000000  2.000000  2.000000  2.000000  2.000000  2.000000
                       2.000000  2.000000  2.000000  2.000000  2.000000  2.000000
                       2.000000  0.000000  0.000000  0.000000  0.000000  0.000000
                       0.000000
                       2.000000  2.000000  2.000000  2.000000  2.000000  2.000000
                       2.000000  2.000000  2.000000  2.000000  2.000000  2.000000
                       2.000000  2.000000  2.000000  2.000000  2.000000  2.000000
                       2.000000  2.000000  2.000000  2.000000  2.000000  2.000000
                       2.000000  2.000000  2.000000  2.000000  2.000000  2.000000
                       2.000000  0.000000  0.000000  0.000000  0.000000  0.000000
                       0.000000
                       2.000000  2.000000  2.000000  2.000000  2.000000  2.000000
                       2.000000  2.000000  2.000000  2.000000  2.000000  2.000000
                       2.000000  2.000000  2.000000  2.000000  2.000000  2.000000
                       2.000000  2.000000  2.000000  2.000000  2.000000  2.000000
                       2.000000  2.000000  2.000000  2.000000  2.000000  2.000000
                       2.000000  0.000000  0.000000  0.000000  0.000000  0.000000
                       0.000000
                       2.000000  2.000000  2.000000  2.000000  2.000000  2.000000
                       2.000000  2.000000  2.000000  2.000000  2.000000  2.000000
                       2.000000  2.000000  2.000000  2.000000  2.000000  2.000000
                       2.000000  2.000000  2.000000  2.000000  2.000000  2.000000
                       2.000000  2.000000  2.000000  2.000000  2.000000  2.000000
                       2.000000  0.000000  0.000000  0.000000  0.000000  0.000000
                       0.000000
                       2.000000  2.000000  2.000000  2.000000  2.000000  2.000000
                       2.000000  2.000000  2.000000  2.000000  2.000000  2.000000
                       2.000000  2.000000  2.000000  2.000000  2.000000  2.000000
                       2.000000  2.000000  2.000000  2.000000  2.000000  2.000000
                       2.000000  2.000000  2.000000  2.000000  2.000000  2.000000
                       2.000000  0.000000  0.000000  0.000000  0.000000  0.000000
                       0.000000
                       prtocc : prtvol=0, do not print more k-points.
           occopt           7
        optdriver1          0
        optdriver2          1
        optdriver3          1
          rfatpol1          1       1
          rfatpol2          1       1
          rfatpol3          1      12
            rfdir1          0       0       0
            rfdir2          1       1       1
            rfdir3          1       1       1
           rfelfd1          0
           rfelfd2          2
           rfelfd3          3
           rfphon1          0
           rfphon2          0
           rfphon3          1
            rprim      1.0000000000E+00  0.0000000000E+00  0.0000000000E+00
                      -1.5057997195E-01  1.1565566695E+00  0.0000000000E+00
                      -2.9394572277E-01 -3.0261136205E-01  1.2024061947E+00
           shiftk      5.00000000E-01  5.00000000E-01  5.00000000E-01
          spgroup           2
           symrel      1  0  0   0  1  0   0  0  1      -1  0  0   0 -1  0   0  0 -1
           tolvrs1     1.00000000E-14
           tolvrs2     0.00000000E+00
           tolvrs3     1.00000000E-14
           tolwfr1     0.00000000E+00
           tolwfr2     1.00000000E-18
           tolwfr3     0.00000000E+00
           tsmear      2.00000000E-02 Hartree
            typat      1  1  2  2  3  3  3  3  3  3  3  3
              wtk        0.00952    0.00952    0.00952    0.00952    0.00952    0.00952
                         0.00952    0.00952    0.00952    0.00952    0.00952    0.00952
                         0.00952    0.00952    0.00952    0.00952    0.00952    0.00952
                         0.00952    0.00952    0.00952    0.00952    0.00952    0.00952
                         0.00952    0.00952    0.00952    0.00952    0.00952    0.00952
                         0.00952    0.00952    0.00952    0.00952    0.00952    0.00952
                         0.00952    0.00952    0.00952    0.00952    0.00952    0.00952
                         0.00952    0.00952    0.00952    0.00952    0.00952    0.00952
                         0.00952    0.00952
                       outvars : Printing only first  50 k-points.
           xangst      2.0029547195E+00  3.9549151903E+00  1.3789961415E+00
                       6.5221241353E-01  1.2694330805E-01  4.3685053689E+00
                      -3.1703746724E-01  1.4160659347E+00  1.2489326220E+00
                       2.9722046003E+00  2.6657925636E+00  4.4985688884E+00
                       2.1820726291E+00 -3.8355418610E-01  2.3950845574E+00
                       4.7309450392E-01  4.4654126844E+00  3.3524169530E+00
                       2.8788252670E+00  4.8010099719E+00  5.9003194105E-01
                      -2.2365813391E-01 -7.1915147360E-01  5.1574695694E+00
                       8.3331645804E-01  3.4437836882E+00  6.9429741079E-01
                       1.8218506750E+00  6.3807481012E-01  5.0532040997E+00
                       2.6646775074E+00  2.9512752148E+00  2.1956534325E+00
                      -9.5103743789E-03  1.1305832836E+00  3.5518480779E+00
            xcart      3.7850358764E+00  7.4737065885E+00  2.6059250457E+00
                       1.2325028420E+00  2.3988808661E-01  8.2552787574E+00
                      -5.9911398694E-01  2.6759768027E+00  2.3601406141E+00
                       5.6166527054E+00  5.0376178723E+00  8.5010631890E+00
                       4.1235196711E+00 -7.2481236885E-01  4.5260538787E+00
                       8.9401904738E-01  8.4384070439E+00  6.3351499244E+00
                       5.4401913390E+00  9.0725940082E+00  1.1149987782E+00
                      -4.2265262048E-01 -1.3589993332E+00  9.7462050249E+00
                       1.5747398877E+00  6.5078080316E+00  1.3120319612E+00
                       3.4427988308E+00  1.2057866434E+00  9.5491718419E+00
                       5.0355107215E+00  5.5771018987E+00  4.1491836702E+00
                      -1.7972002997E-02  2.1364927764E+00  6.7120201329E+00
             xred      6.0673077069E-01  7.7816642934E-01  2.3992967014E-01
                       3.9326922931E-01  2.2183357066E-01  7.6007032987E-01
                       4.4680569463E-02  3.1300289542E-01  2.1730009462E-01
                       9.5531943054E-01  6.8699710458E-01  7.8269990538E-01
                       5.8496397409E-01  3.9653908578E-02  4.1671751683E-01
                       4.1503602591E-01  9.6034609142E-01  5.8328248317E-01
                       7.6725456574E-01  8.9529650667E-01  1.0265885794E-01
                       2.3274543426E-01  1.0470349333E-01  8.9734114206E-01
                       3.0840316456E-01  6.5453970651E-01  1.2079986574E-01
                       6.9159683544E-01  3.4546029349E-01  8.7920013426E-01
                       7.6519418837E-01  6.3379931322E-01  3.8201876564E-01
                       2.3480581163E-01  3.6620068678E-01  6.1798123436E-01
            znucl       16.00000   11.00000    8.00000

================================================================================

 chkinp: Checking input parameters for consistency, jdtset=   1.

 chkinp: Checking input parameters for consistency, jdtset=   2.

 chkinp: Checking input parameters for consistency, jdtset=   3.

================================================================================
== DATASET  1 ==================================================================
-   nproc =    4

 Exchange-correlation functional for the present dataset will be:
  GGA: Perdew-Burke-Ernzerhof functional - ixc=11
 Citation for XC functional:
  J.P.Perdew, K.Burke, M.Ernzerhof, PRL 77, 3865 (1996)

 Real(R)+Recip(G) space primitive vectors, cartesian coordinates (Bohr,Bohr^-1):
 R(1)=  9.0328908  0.0000000  0.0000000  G(1)=  0.1107065  0.0144136  0.0306913
 R(2)= -1.3601724 10.4470501  0.0000000  G(2)=  0.0000000  0.0957208  0.0240902
 R(3)= -2.6551796 -2.7334554 10.8612038  G(3)=  0.0000000  0.0000000  0.0920708
 Unit cell volume ucvol=  1.0249399E+03 bohr^3
 Angles (23,13,12)=  1.01871000E+02  1.03337000E+02  9.74180000E+01 degrees

 getcut: wavevector=  0.0000  0.0000  0.0000  ngfft=  54  60  72
         ecut(hartree)=     40.000   => boxcut(ratio)=   2.00056

--- Pseudopotential description ------------------------------------------------
- pspini: atom type   1  psp file is /home/john/Data/PseudoPotentials/16s.pspnc
- pspatm: opening atomic psp file    /home/john/Data/PseudoPotentials/16s.pspnc
-  Troullier-Martins psp for element  S         Thu Oct 27 17:31:52 EDT 1994
- 16.00000   6.00000    940714                znucl, zion, pspdat
    1    1    2    2      2001   0.00000      pspcod,pspxc,lmax,lloc,mmax,r2well
    0   8.873  21.501    1   1.7591368        l,e99.0,e99.9,nproj,rcpsp
   0.00000000   0.00000000   0.00000000   0.00000000     rms, ekb1, ekb2, epsatm
    1   4.476   7.312    1   1.7591368        l,e99.0,e99.9,nproj,rcpsp
   0.00000000   0.00000000   0.00000000   0.00000000     rms, ekb1, ekb2, epsatm
    2   0.000   0.000    0   1.7591368        l,e99.0,e99.9,nproj,rcpsp
   0.00000000   0.00000000   0.00000000   0.00000000     rms, ekb1, ekb2, epsatm
    1.37741381030740    0.71675323766344    1.63459417149422   rchrg,fchrg,qchrg
 pspatm: epsatm=    2.50416601
         --- l  ekb(1:nproj) -->
             0    5.201824
             1    3.062658
 pspatm: atomic psp has been read  and splines computed

- pspini: atom type   2  psp file is /home/john/Data/PseudoPotentials/11na.pspnc
- pspatm: opening atomic psp file    /home/john/Data/PseudoPotentials/11na.pspnc
-  Troullier-Martins psp for element  Na        Mon Oct 31 11:14:49 EST 1994
- 11.00000   1.00000    940714                znucl, zion, pspdat
    1    1    2    2      2001   0.00000      pspcod,pspxc,lmax,lloc,mmax,r2well
    0   2.613   6.900    1   2.9359409        l,e99.0,e99.9,nproj,rcpsp
   0.00000000   0.00000000   0.00000000   0.00000000     rms, ekb1, ekb2, epsatm
    1   0.769   1.167    1   3.1646217        l,e99.0,e99.9,nproj,rcpsp
   0.00000000   0.00000000   0.00000000   0.00000000     rms, ekb1, ekb2, epsatm
    2   0.991   2.977    0   2.9359409        l,e99.0,e99.9,nproj,rcpsp
   0.00000000   0.00000000   0.00000000   0.00000000     rms, ekb1, ekb2, epsatm
    2.09488187080490    1.31996662950249   10.58981932283911   rchrg,fchrg,qchrg
 pspatm: epsatm=   10.64390676
         --- l  ekb(1:nproj) -->
             0    1.300581
             1    0.590411
 pspatm: atomic psp has been read  and splines computed

- pspini: atom type   3  psp file is /home/john/Data/PseudoPotentials/8o.pspnc
- pspatm: opening atomic psp file    /home/john/Data/PseudoPotentials/8o.pspnc
-  Troullier-Martins psp for element  O         Thu Oct 27 17:29:57 EDT 1994
-  8.00000   6.00000    940714                znucl, zion, pspdat
    1    1    1    1      2001   0.00000      pspcod,pspxc,lmax,lloc,mmax,r2well
    0   5.480  16.893    1   1.4482335        l,e99.0,e99.9,nproj,rcpsp
   0.00000000   0.00000000   0.00000000   0.00000000     rms, ekb1, ekb2, epsatm
    1  20.911  28.075    0   1.4482335        l,e99.0,e99.9,nproj,rcpsp
   0.00000000   0.00000000   0.00000000   0.00000000     rms, ekb1, ekb2, epsatm
    0.56990156784787    3.95561236318184    0.63894027514378   rchrg,fchrg,qchrg
 pspatm: epsatm=    1.57752239
         --- l  ekb(1:nproj) -->
             0    5.670783
 pspatm: atomic psp has been read  and splines computed

   2.41281213E+03                                ecore*ucvol(ha*bohr**3)
--------------------------------------------------------------------------------

_setup2: Arith. and geom. avg. npw (full set) are   12385.229   12385.221

================================================================================

     iter   Etot(hartree)      deltaE(h)  residm     vres2
 ETOT  1  -168.91527489471    -1.689E+02 1.086E-01 2.422E+03
 ETOT  2  -168.71419396025     2.011E-01 1.528E-02 4.309E+03
 ETOT  3  -169.34687687745    -6.327E-01 1.273E-02 3.012E+02
 ETOT  4  -169.35142134018    -4.544E-03 2.271E-03 2.138E+02
 ETOT  5  -169.35773954923    -6.318E-03 1.712E-03 2.732E+01
 ETOT  6  -169.35914484048    -1.405E-03 1.273E-03 1.579E+01
 ETOT  7  -169.35947872875    -3.339E-04 8.823E-04 4.229E+00
 ETOT  8  -169.35962314261    -1.444E-04 6.739E-04 4.530E-01
 ETOT  9  -169.35968161366    -5.847E-05 3.696E-04 4.434E-01
 ETOT 10  -169.35969169689    -1.008E-05 3.551E-04 1.188E-01
 ETOT 11  -169.35969566127    -3.964E-06 2.302E-04 1.121E-02
 ETOT 12  -169.35969627408    -6.128E-07 2.259E-04 7.427E-03
 ETOT 13  -169.35969648310    -2.090E-07 2.004E-04 1.392E-03
 ETOT 14  -169.35969651999    -3.689E-08 2.213E-04 4.600E-04
 ETOT 15  -169.35969653402    -1.403E-08 1.361E-04 1.692E-04
 ETOT 16  -169.35969653996    -5.943E-09 1.684E-04 4.750E-05
 ETOT 17  -169.35969654132    -1.354E-09 8.171E-05 3.290E-06
 ETOT 18  -169.35969654133    -1.202E-11 1.051E-04 2.604E-06
 ETOT 19  -169.35969654137    -4.701E-11 4.590E-05 9.390E-07
 ETOT 20  -169.35969654143    -5.400E-11 5.781E-05 4.873E-08
 ETOT 21  -169.35969654143    -2.331E-12 2.380E-05 1.745E-08
 ETOT 22  -169.35969654144    -5.940E-12 2.967E-05 1.959E-08
 ETOT 23  -169.35969654143     2.132E-12 1.185E-05 4.373E-09
 ETOT 24  -169.35969654143     8.242E-13 1.469E-05 3.420E-10
 ETOT 25  -169.35969654143     5.599E-12 8.684E-06 2.717E-10
 ETOT 26  -169.35969654144    -7.304E-12 9.924E-06 4.578E-11
 ETOT 27  -169.35969654143     2.416E-12 6.602E-06 1.375E-11
 ETOT 28  -169.35969654143     4.320E-12 9.772E-06 5.915E-12
 ETOT 29  -169.35969654144    -1.421E-11 5.837E-06 3.115E-13
 ETOT 30  -169.35969654143     1.185E-11 9.513E-06 2.696E-13
 ETOT 31  -169.35969654143    -3.013E-12 5.621E-06 5.686E-14
 ETOT 32  -169.35969654143     9.948E-13 9.158E-06 5.980E-15

 At SCF step   32       vres2   =  5.98E-15 < tolvrs=  1.00E-14 =>converged.

 Cartesian components of stress tensor (hartree/bohr^3)
  sigma(1 1)= -1.60255168E-04  sigma(3 2)=  5.28989512E-06
  sigma(2 2)= -1.67861582E-04  sigma(3 1)= -1.63123198E-05
  sigma(3 3)= -2.16302286E-04  sigma(2 1)= -2.42507378E-05

 Integrated electronic density in atomic spheres:
 ------------------------------------------------
 Atom  Sphere_radius  Integrated_density
    1        2.00000          5.18107267
    2        2.00000          5.18107267
    3        2.00000          0.06004504
    4        2.00000          0.06004504
    5        2.00000          6.31433765
    6        2.00000          6.31433765
    7        2.00000          6.52493716
    8        2.00000          6.52493716
    9        2.00000          6.54437569
   10        2.00000          6.54437569
   11        2.00000          6.52707706
   12        2.00000          6.52707706
================================================================================

 ----iterations are completed or convergence reached----

 Mean square residual over all n,k,spin=   5.4228E-09; max=  9.1583E-06
 reduced coordinates (array xred) for   12 atoms
       0.606730770694      0.778166429343      0.239929670135
       0.393269229306      0.221833570657      0.760070329865
       0.044680569463      0.313002895424      0.217300094618
       0.955319430537      0.686997104576      0.782699905382
       0.584963974087      0.039653908578      0.416717516834
       0.415036025913      0.960346091422      0.583282483166
       0.767254565736      0.895296506671      0.102658857937
       0.232745434264      0.104703493329      0.897341142063
       0.308403164563      0.654539706510      0.120799865737
       0.691596835437      0.345460293490      0.879200134263
       0.765194188370      0.633799313216      0.382018765638
       0.234805811630      0.366200686784      0.617981234362
 rms dE/dt=  3.2000E-05; max dE/dt=  6.7820E-05; dE/dt below (all hartree)
    1      -0.000001104965     -0.000041984925     -0.000022826964
    2       0.000001104965      0.000041984925      0.000022826964
    3      -0.000035244356      0.000064751999      0.000037085579
    4       0.000035244356     -0.000064751999     -0.000037085579
    5       0.000004014712      0.000067820405     -0.000036666380
    6      -0.000004014712     -0.000067820405      0.000036666380
    7      -0.000026240575     -0.000020919955      0.000034704568
    8       0.000026240575      0.000020919955     -0.000034704568
    9      -0.000011393776      0.000022857100      0.000017035249
   10       0.000011393776     -0.000022857100     -0.000017035249
   11      -0.000006471260      0.000005388591      0.000005685449
   12       0.000006471260     -0.000005388591     -0.000005685449

 cartesian coordinates (angstrom) at end:
    1      2.00295471950974     3.95491519029920     1.37899614150335
    2      0.65221241353312     0.12694330804519     4.36850536894944
    3     -0.31703746723734     1.41606593472433     1.24893262203849
    4      2.97220460028020     2.66579256362005     4.49856888841430
    5      2.18207262912241    -0.38355418609922     2.39508455743555
    6      0.47309450392045     4.46541268444360     3.35241695301724
    7      2.87882526695153     4.80100997194806     0.59003194105427
    8     -0.22365813390867    -0.71915147360368     5.15746956939853
    9      0.83331645804413     3.44378368822562     0.69429741078590
   10      1.82185067499873     0.63807481011876     5.05320409966689
   11      2.66467750742173     2.95127521478186     2.19565343252572
   12     -0.00951037437887     1.13058328356253     3.55184807792708

 cartesian forces (hartree/bohr) at end:
    1      0.00000012232688     0.00000403475719     0.00000314703538
    2     -0.00000012232688    -0.00000403475719    -0.00000314703538
    3      0.00000390178035    -0.00000569011394    -0.00000389269227
    4     -0.00000390178035     0.00000569011394     0.00000389269227
    5     -0.00000044445484    -0.00000654969011     0.00000161888013
    6      0.00000044445484     0.00000654969011    -0.00000161888013
    7      0.00000290500299     0.00000238069690    -0.00000188595438
    8     -0.00000290500299    -0.00000238069690     0.00000188595438
    9      0.00000126136540    -0.00000202367419    -0.00000176939135
   10     -0.00000126136540     0.00000202367419     0.00000176939135
   11      0.00000071641073    -0.00000042252586    -0.00000045466465
   12     -0.00000071641073     0.00000042252586     0.00000045466465
 frms,max,avg= 3.0004470E-06 6.5496901E-06   0.000E+00  0.000E+00  0.000E+00 h/b

 cartesian forces (eV/Angstrom) at end:
    1      0.00000629030069     0.00020747553899     0.00016182705231
    2     -0.00000629030069    -0.00020747553899    -0.00016182705231
    3      0.00020063759582    -0.00029259739874    -0.00020017026770
    4     -0.00020063759582     0.00029259739874     0.00020017026770
    5     -0.00002285478512    -0.00033679857887     0.00008324615644
    6      0.00002285478512     0.00033679857887    -0.00008324615644
    7      0.00014938124720     0.00012242034663    -0.00009697966521
    8     -0.00014938124720    -0.00012242034663     0.00009697966521
    9      0.00006486201127    -0.00010406150189    -0.00009098575401
   10     -0.00006486201127     0.00010406150189     0.00009098575401
   11      0.00003683931784    -0.00002172715133    -0.00002337979434
   12     -0.00003683931784     0.00002172715133     0.00002337979434
 frms,max,avg= 1.5428917E-04 3.3679858E-04   0.000E+00  0.000E+00  0.000E+00 e/A
 length scales=  9.032890758000  9.032890758000  9.032890758000 bohr
              =  4.779999916817  4.779999916817  4.779999916817 angstroms
 prteigrs : about to open file Na2SO42_0_DS1_EIG
 Fermi (or HOMO) energy (hartree) =   0.08792   Average Vxc (hartree)=  -0.35597
 Eigenvalues (hartree) for nkpt= 105  k points:
 kpt#   1, nband= 37, wtk=  0.00952, kpt=  0.0714  0.0833  0.1000 (reduced coord)
  -0.82371   -0.79867   -0.72224   -0.65747   -0.65684   -0.65017   -0.64970   -0.58384
  -0.31084   -0.27476   -0.23464   -0.21251   -0.18152   -0.17642   -0.16952   -0.16242
  -0.12581   -0.11719   -0.08074   -0.07480   -0.06545   -0.06095   -0.05673   -0.04579
  -0.03859   -0.02772   -0.02184   -0.00573    0.01280    0.01436    0.02671    0.15260
   0.24856    0.29879    0.31303    0.33044    0.36286
      occupation numbers for kpt#   1
   2.00000    2.00000    2.00000    2.00000    2.00000    2.00000    2.00000    2.00000
   2.00000    2.00000    2.00000    2.00000    2.00000    2.00000    2.00000    2.00000
   2.00000    2.00000    2.00000    2.00000    2.00000    2.00000    2.00000    2.00000
   2.00000    2.00000    2.00000    2.00000    2.00000    2.00000    1.99998    0.00000
   0.00000    0.00000    0.00000    0.00000    0.00000
 prteigrs : prtvol=0 or 1, do not print more k-points.


--------------------------------------------------------------------------------
 Components of total free energy (in Hartree) :

    Kinetic energy  =  9.89663637698086E+01
    Hartree energy  =  6.32684436880388E+01
    XC energy       = -5.50820172042119E+01
    Ewald energy    = -8.23291653005329E+01
    PspCore energy  =  2.35410110453816E+00
    Loc. psp. energy= -2.17741613271981E+02
    NL   psp  energy=  2.12041916542847E+01
    >>>>> Internal E= -1.69359695560055E+02

    -kT*entropy     = -9.81377598264777E-07
    >>>>>>>>> Etotal= -1.69359696541433E+02

 Other information on the energy :
    Total energy(eV)= -4.60851171300205E+03 ; Band energy (Ha)=  -1.5863623895E+01
--------------------------------------------------------------------------------

 Cartesian components of stress tensor (hartree/bohr^3)
  sigma(1 1)= -1.60255168E-04  sigma(3 2)=  5.28989512E-06
  sigma(2 2)= -1.67861582E-04  sigma(3 1)= -1.63123198E-05
  sigma(3 3)= -2.16302286E-04  sigma(2 1)= -2.42507378E-05

-Cartesian components of stress tensor (GPa)         [Pressure=  5.3391E+00 GPa]
- sigma(1 1)= -4.71486902E+00  sigma(3 2)=  1.55634061E-01
- sigma(2 2)= -4.93865743E+00  sigma(3 1)= -4.79924938E-01
- sigma(3 3)= -6.36383189E+00  sigma(2 1)= -7.13481218E-01

================================================================================
== DATASET  2 ==================================================================
-   nproc =    4

 mkfilename : getwfk/=0, take file _WFK from output of DATASET   1.

 Exchange-correlation functional for the present dataset will be:
  GGA: Perdew-Burke-Ernzerhof functional - ixc=11
 Citation for XC functional:
  J.P.Perdew, K.Burke, M.Ernzerhof, PRL 77, 3865 (1996)

 Real(R)+Recip(G) space primitive vectors, cartesian coordinates (Bohr,Bohr^-1):
 R(1)=  9.0328908  0.0000000  0.0000000  G(1)=  0.1107065  0.0144136  0.0306913
 R(2)= -1.3601724 10.4470501  0.0000000  G(2)=  0.0000000  0.0957208  0.0240902
 R(3)= -2.6551796 -2.7334554 10.8612038  G(3)=  0.0000000  0.0000000  0.0920708
 Unit cell volume ucvol=  1.0249399E+03 bohr^3
 Angles (23,13,12)=  1.01871000E+02  1.03337000E+02  9.74180000E+01 degrees
 setup1 : take into account q-point for computing boxcut.

 getcut: wavevector=  0.0000  0.0000  0.0000  ngfft=  54  60  72
         ecut(hartree)=     40.000   => boxcut(ratio)=   2.00056
--------------------------------------------------------------------------------

-inwffil : will read wavefunctions from disk file Na2SO42_0_DS1_WFK

 ==>  initialize data related to q vector <== 

 The list of irreducible perturbations for this q vector is:
    1)    idir= 1    ipert=  13
    2)    idir= 2    ipert=  13
    3)    idir= 3    ipert=  13

================================================================================

--------------------------------------------------------------------------------
 Perturbation wavevector (in red.coord.)   0.000000  0.000000  0.000000
 Perturbation : derivative vs k along direction   1
 The set of symmetries contains only one element for this perturbation.
 symkpt : not enough symmetry to change the number of k points.

--------------------------------------------------------------------------------

-inwffil : will read wavefunctions from disk file Na2SO42_0_DS1_WFK
--------------------------------------------------------------------------------

 dfpt_looppert : total number of electrons, from k and k+q
  fully or partially occupied states are    6.200000E+01 and    6.200000E+01.
 Initialisation of the first-order wave-functions :
  ireadwf=   0

     iter   2DEtotal(Ha)        deltaE(Ha) residm    vres2
-ETOT  1  -32.342574357525     -3.234E+01 8.208E-02 0.000E+00
 ETOT  2  -32.382590019881     -4.002E-02 1.145E-02 0.000E+00
 ETOT  3  -32.382769511390     -1.795E-04 1.359E-03 0.000E+00
 ETOT  4  -32.382770716401     -1.205E-06 2.660E-04 0.000E+00
 ETOT  5  -32.382770726158     -9.757E-09 4.443E-05 0.000E+00
 ETOT  6  -32.382770726247     -8.824E-11 9.552E-06 0.000E+00
 ETOT  7  -32.382770726247     -9.024E-13 1.639E-06 0.000E+00
 ETOT  8  -32.382770726247      1.421E-14 3.848E-07 0.000E+00
 ETOT  9  -32.382770726247      2.132E-14 6.782E-08 0.000E+00
 ETOT 10  -32.382770726247     -2.842E-14 1.700E-08 0.000E+00
 ETOT 11  -32.382770726247      2.842E-14 3.070E-09 0.000E+00
 ETOT 12  -32.382770726247      0.000E+00 8.026E-10 0.000E+00
 ETOT 13  -32.382770726247      0.000E+00 1.487E-10 0.000E+00
 ETOT 14  -32.382770726247     -1.421E-14 4.015E-11 0.000E+00
 ETOT 15  -32.382770726247      7.105E-15 7.624E-12 0.000E+00
 ETOT 16  -32.382770726247      0.000E+00 2.115E-12 0.000E+00
 ETOT 17  -32.382770726247      0.000E+00 4.104E-13 0.000E+00
 ETOT 18  -32.382770726247      0.000E+00 1.164E-13 0.000E+00
 ETOT 19  -32.382770726247     -7.105E-15 2.297E-14 0.000E+00
 ETOT 20  -32.382770726247      7.105E-15 6.626E-15 0.000E+00
 ETOT 21  -32.382770726247      0.000E+00 1.324E-15 0.000E+00
 ETOT 22  -32.382770726247      7.105E-15 3.868E-16 0.000E+00
 ETOT 23  -32.382770726247     -1.421E-14 7.789E-17 0.000E+00
 ETOT 24  -32.382770726247      7.105E-15 2.298E-17 0.000E+00
 ETOT 25  -32.382770726247      0.000E+00 4.652E-18 0.000E+00
 ETOT 26  -32.382770726247      7.105E-15 1.382E-18 0.000E+00
 ETOT 27  -32.382770726247     -7.105E-15 9.996E-19 0.000E+00

 At SCF step   27   max residual=  1.00E-18 < tolwfr=  1.00E-18 =>converged.
================================================================================

 ----iterations are completed or convergence reached----

 Mean square residual over all n,k,spin=  -5.4054E-03; max=  9.9964E-19
 dfpt_looppert : ek2=    6.5624979656E+01
          f-sum rule ratio=    1.0000183343E+00
 prteigrs : about to open file Na2SO42_1WF1_EIG
 Expectation of eigenvalue derivatives (hartree) for nkpt= 105  k points:
  (in case of degenerate eigenvalues, averaged derivative)
 kpt#   1, nband= 37, wtk=  0.00952, kpt=  0.0714  0.0833  0.1000 (reduced coord)
   0.00221    0.00000   -0.00017    0.00060   -0.00385   -0.00264   -0.00040    0.00057
   0.00875   -0.00851    0.01725   -0.00398    0.01876   -0.01407   -0.00587   -0.00244
  -0.00817   -0.00199   -0.00587    0.00815    0.01356   -0.00503   -0.01944    0.00224
   0.00294   -0.01063    0.01210   -0.00674    0.01634    0.00693   -0.00746   -0.00033
   0.07134   -0.00234   -0.00180   -0.03778    0.02856
 prteigrs : prtvol=0 or 1, do not print more k-points.


 Eight components of 2nd-order total energy (hartree) are
 1,2,3: 0th-order hamiltonian combined with 1st-order wavefunctions
     kin0=   5.37626066E+01 eigvalue=   2.50721947E+00  local=  -3.23251546E+01
 4,5,6: 1st-order hamiltonian combined with 1st and 0th-order wfs
     kin1=  -6.56261828E+01  Hartree=   0.00000000E+00     xc=   0.00000000E+00
 7,8,9: eventually, occupation + non-local contributions
    edocc=   4.14016391E+00     enl0=   4.29793526E+00   enl1=   8.60641399E-01
 1-9 gives the relaxation energy (to be shifted if some occ is /=2.0)
   erelax=  -3.23827707E+01
  No Ewald or frozen-wf contrib.: the relaxation energy is the total one
 2DEtotal=   -0.3238277073E+02 Ha. Also 2DEtotal=   -0.881180004682E+03 eV
    (  non-var. 2DEtotal :   -3.2382770723E+01 Ha)

--------------------------------------------------------------------------------
 Perturbation wavevector (in red.coord.)   0.000000  0.000000  0.000000
 Perturbation : derivative vs k along direction   2
 The set of symmetries contains only one element for this perturbation.
 symkpt : not enough symmetry to change the number of k points.

--------------------------------------------------------------------------------

-inwffil : will read wavefunctions from disk file Na2SO42_0_DS1_WFK
--------------------------------------------------------------------------------

 dfpt_looppert : total number of electrons, from k and k+q
  fully or partially occupied states are    6.200000E+01 and    6.200000E+01.
 Initialisation of the first-order wave-functions :
  ireadwf=   0

     iter   2DEtotal(Ha)        deltaE(Ha) residm    vres2
-ETOT  1  -23.488492040521     -2.349E+01 6.985E-02 0.000E+00
 ETOT  2  -23.515711920835     -2.722E-02 6.738E-03 0.000E+00
 ETOT  3  -23.515831114741     -1.192E-04 1.098E-03 0.000E+00
 ETOT  4  -23.515831928195     -8.135E-07 2.028E-04 0.000E+00
 ETOT  5  -23.515831935058     -6.863E-09 4.754E-05 0.000E+00
 ETOT  6  -23.515831935124     -6.602E-11 1.027E-05 0.000E+00
 ETOT  7  -23.515831935125     -6.501E-13 2.381E-06 0.000E+00
 ETOT  8  -23.515831935125     -1.776E-14 5.697E-07 0.000E+00
 ETOT  9  -23.515831935125      7.105E-15 1.313E-07 0.000E+00
 ETOT 10  -23.515831935125     -1.066E-14 3.317E-08 0.000E+00
 ETOT 11  -23.515831935125     -3.553E-15 7.602E-09 0.000E+00
 ETOT 12  -23.515831935125      1.421E-14 1.977E-09 0.000E+00
 ETOT 13  -23.515831935125      0.000E+00 4.511E-10 0.000E+00
 ETOT 14  -23.515831935125      0.000E+00 1.194E-10 0.000E+00
 ETOT 15  -23.515831935125      0.000E+00 2.716E-11 0.000E+00
 ETOT 16  -23.515831935125     -3.553E-15 7.280E-12 0.000E+00
 ETOT 17  -23.515831935125      3.553E-15 1.652E-12 0.000E+00
 ETOT 18  -23.515831935125      0.000E+00 4.470E-13 0.000E+00
 ETOT 19  -23.515831935125     -7.105E-15 1.013E-13 0.000E+00
 ETOT 20  -23.515831935125      1.066E-14 2.761E-14 0.000E+00
 ETOT 21  -23.515831935125     -3.553E-15 6.244E-15 0.000E+00
 ETOT 22  -23.515831935125     -3.553E-15 1.713E-15 0.000E+00
 ETOT 23  -23.515831935125     -3.553E-15 3.870E-16 0.000E+00
 ETOT 24  -23.515831935125     -3.553E-15 1.067E-16 0.000E+00
 ETOT 25  -23.515831935125      7.105E-15 2.409E-17 0.000E+00
 ETOT 26  -23.515831935125      0.000E+00 6.672E-18 0.000E+00
 ETOT 27  -23.515831935125     -7.105E-15 1.505E-18 0.000E+00
 ETOT 28  -23.515831935125      7.105E-15 9.999E-19 0.000E+00

 At SCF step   28   max residual=  1.00E-18 < tolwfr=  1.00E-18 =>converged.
================================================================================

 ----iterations are completed or convergence reached----

 Mean square residual over all n,k,spin=  -5.4054E-03; max=  9.9993E-19
 dfpt_looppert : ek2=    4.7694206329E+01
          f-sum rule ratio=    1.0000185743E+00
 prteigrs : about to open file Na2SO42_1WF1_EIG
 Expectation of eigenvalue derivatives (hartree) for nkpt= 105  k points:
  (in case of degenerate eigenvalues, averaged derivative)
 kpt#   1, nband= 37, wtk=  0.00952, kpt=  0.0714  0.0833  0.1000 (reduced coord)
   0.00573   -0.00956    0.00721   -0.00211   -0.00016    0.00022    0.00025   -0.00450
   0.01672   -0.01329    0.00389   -0.01383    0.00840    0.01239    0.01224   -0.00972
   0.01781    0.00049   -0.00057   -0.01785   -0.00182   -0.04142   -0.00828    0.00246
   0.04532   -0.02289   -0.00002    0.00426   -0.00077   -0.00189   -0.00311   -0.00057
   0.06817   -0.02647    0.01274   -0.01647    0.02446
 prteigrs : prtvol=0 or 1, do not print more k-points.


 Eight components of 2nd-order total energy (hartree) are
 1,2,3: 0th-order hamiltonian combined with 1st-order wavefunctions
     kin0=   3.73271278E+01 eigvalue=   1.66532757E+00  local=  -2.16463033E+01
 4,5,6: 1st-order hamiltonian combined with 1st and 0th-order wfs
     kin1=  -4.76950922E+01  Hartree=   0.00000000E+00     xc=   0.00000000E+00
 7,8,9: eventually, occupation + non-local contributions
    edocc=   3.41694560E+00     enl0=   2.75273421E+00   enl1=   6.63428351E-01
 1-9 gives the relaxation energy (to be shifted if some occ is /=2.0)
   erelax=  -2.35158319E+01
  No Ewald or frozen-wf contrib.: the relaxation energy is the total one
 2DEtotal=   -0.2351583194E+02 Ha. Also 2DEtotal=   -0.639898329574E+03 eV
    (  non-var. 2DEtotal :   -2.3515831932E+01 Ha)

--------------------------------------------------------------------------------
 Perturbation wavevector (in red.coord.)   0.000000  0.000000  0.000000
 Perturbation : derivative vs k along direction   3
 The set of symmetries contains only one element for this perturbation.
 symkpt : not enough symmetry to change the number of k points.

--------------------------------------------------------------------------------

-inwffil : will read wavefunctions from disk file Na2SO42_0_DS1_WFK
--------------------------------------------------------------------------------

 dfpt_looppert : total number of electrons, from k and k+q
  fully or partially occupied states are    6.200000E+01 and    6.200000E+01.
 Initialisation of the first-order wave-functions :
  ireadwf=   0

     iter   2DEtotal(Ha)        deltaE(Ha) residm    vres2
-ETOT  1  -20.428933198088     -2.043E+01 6.684E-02 0.000E+00
 ETOT  2  -20.453035709438     -2.410E-02 7.773E-03 0.000E+00
 ETOT  3  -20.453144682503     -1.090E-04 9.405E-04 0.000E+00
 ETOT  4  -20.453145428817     -7.463E-07 1.507E-04 0.000E+00
 ETOT  5  -20.453145434991     -6.175E-09 2.249E-05 0.000E+00
 ETOT  6  -20.453145435049     -5.715E-11 4.860E-06 0.000E+00
 ETOT  7  -20.453145435049     -5.862E-13 7.751E-07 0.000E+00
 ETOT  8  -20.453145435049      3.197E-14 1.853E-07 0.000E+00
 ETOT  9  -20.453145435049     -3.197E-14 3.013E-08 0.000E+00
 ETOT 10  -20.453145435049     -1.066E-14 7.511E-09 0.000E+00
 ETOT 11  -20.453145435049      1.066E-14 1.237E-09 0.000E+00
 ETOT 12  -20.453145435049     -7.105E-15 3.148E-10 0.000E+00
 ETOT 13  -20.453145435049     -3.553E-15 5.226E-11 0.000E+00
 ETOT 14  -20.453145435049      7.105E-15 1.685E-11 0.000E+00
 ETOT 15  -20.453145435049      0.000E+00 2.520E-12 0.000E+00
 ETOT 16  -20.453145435049     -7.105E-15 9.140E-13 0.000E+00
 ETOT 17  -20.453145435049      0.000E+00 1.385E-13 0.000E+00
 ETOT 18  -20.453145435049      7.105E-15 5.016E-14 0.000E+00
 ETOT 19  -20.453145435049     -7.105E-15 7.693E-15 0.000E+00
 ETOT 20  -20.453145435049      7.105E-15 2.781E-15 0.000E+00
 ETOT 21  -20.453145435049      0.000E+00 4.311E-16 0.000E+00
 ETOT 22  -20.453145435049      3.553E-15 1.555E-16 0.000E+00
 ETOT 23  -20.453145435049     -1.421E-14 2.434E-17 0.000E+00
 ETOT 24  -20.453145435049      3.553E-15 8.756E-18 0.000E+00
 ETOT 25  -20.453145435049      3.553E-15 1.382E-18 0.000E+00
 ETOT 26  -20.453145435049      0.000E+00 9.997E-19 0.000E+00

 At SCF step   26   max residual=  1.00E-18 < tolwfr=  1.00E-18 =>converged.
================================================================================

 ----iterations are completed or convergence reached----

 Mean square residual over all n,k,spin=  -5.4054E-03; max=  9.9973E-19
 dfpt_looppert : ek2=    4.1497840380E+01
          f-sum rule ratio=    1.0000184369E+00
 prteigrs : about to open file Na2SO42_1WF1_EIG
 Expectation of eigenvalue derivatives (hartree) for nkpt= 105  k points:
  (in case of degenerate eigenvalues, averaged derivative)
 kpt#   1, nband= 37, wtk=  0.00952, kpt=  0.0714  0.0833  0.1000 (reduced coord)
   0.00686   -0.01169    0.00791   -0.00322    0.00208   -0.00154    0.00126   -0.00300
   0.01529   -0.02158    0.00694   -0.01509   -0.00033    0.00396    0.01971    0.00496
   0.01668   -0.00043    0.00270   -0.00367   -0.00581   -0.04244   -0.01459    0.00424
   0.04921   -0.02592   -0.00357    0.00309   -0.00041   -0.00022   -0.00144   -0.00523
   0.06846   -0.03567    0.02460   -0.03626    0.02506
 prteigrs : prtvol=0 or 1, do not print more k-points.


 Eight components of 2nd-order total energy (hartree) are
 1,2,3: 0th-order hamiltonian combined with 1st-order wavefunctions
     kin0=   3.27981757E+01 eigvalue=   1.52494128E+00  local=  -1.92521950E+01
 4,5,6: 1st-order hamiltonian combined with 1st and 0th-order wfs
     kin1=  -4.14986055E+01  Hartree=   0.00000000E+00     xc=   0.00000000E+00
 7,8,9: eventually, occupation + non-local contributions
    edocc=   2.85933981E+00     enl0=   2.52288365E+00   enl1=   5.92314603E-01
 1-9 gives the relaxation energy (to be shifted if some occ is /=2.0)
   erelax=  -2.04531454E+01
  No Ewald or frozen-wf contrib.: the relaxation energy is the total one
 2DEtotal=   -0.2045314544E+02 Ha. Also 2DEtotal=   -0.556558391578E+03 eV
    (  non-var. 2DEtotal :   -2.0453145433E+01 Ha)
================================================================================

 ---- first-order wavefunction calculations are completed ----


 respfn : d/dk was computed, but no 2DTE, so no DDB output.

================================================================================
== DATASET  3 ==================================================================
-   nproc =    4

 mkfilename : getwfk/=0, take file _WFK from output of DATASET   1.

 mkfilename : getddk/=0, take file _1WF from output of DATASET   2.

 Exchange-correlation functional for the present dataset will be:
  GGA: Perdew-Burke-Ernzerhof functional - ixc=11
 Citation for XC functional:
  J.P.Perdew, K.Burke, M.Ernzerhof, PRL 77, 3865 (1996)

 Real(R)+Recip(G) space primitive vectors, cartesian coordinates (Bohr,Bohr^-1):
 R(1)=  9.0328908  0.0000000  0.0000000  G(1)=  0.1107065  0.0144136  0.0306913
 R(2)= -1.3601724 10.4470501  0.0000000  G(2)=  0.0000000  0.0957208  0.0240902
 R(3)= -2.6551796 -2.7334554 10.8612038  G(3)=  0.0000000  0.0000000  0.0920708
 Unit cell volume ucvol=  1.0249399E+03 bohr^3
 Angles (23,13,12)=  1.01871000E+02  1.03337000E+02  9.74180000E+01 degrees
 setup1 : take into account q-point for computing boxcut.

 getcut: wavevector=  0.0000  0.0000  0.0000  ngfft=  54  60  72
         ecut(hartree)=     40.000   => boxcut(ratio)=   2.00056
--------------------------------------------------------------------------------

-inwffil : will read wavefunctions from disk file Na2SO42_0_DS1_WFK

 ==>  initialize data related to q vector <== 

 The list of irreducible perturbations for this q vector is:
    1)    idir= 1    ipert=   1
    2)    idir= 2    ipert=   1
    3)    idir= 3    ipert=   1
    4)    idir= 1    ipert=   3
    5)    idir= 2    ipert=   3
    6)    idir= 3    ipert=   3
    7)    idir= 1    ipert=   5
    8)    idir= 2    ipert=   5
    9)    idir= 3    ipert=   5
   10)    idir= 1    ipert=   7
   11)    idir= 2    ipert=   7
   12)    idir= 3    ipert=   7
   13)    idir= 1    ipert=   9
   14)    idir= 2    ipert=   9
   15)    idir= 3    ipert=   9
   16)    idir= 1    ipert=  11
   17)    idir= 2    ipert=  11
   18)    idir= 3    ipert=  11
   19)    idir= 1    ipert=  14
   20)    idir= 2    ipert=  14
   21)    idir= 3    ipert=  14

================================================================================

 The perturbation idir=   1  ipert=   2 is
 symmetric of a previously calculated perturbation.
 So, its SCF calculation is not needed.


 The perturbation idir=   2  ipert=   2 is
 symmetric of a previously calculated perturbation.
 So, its SCF calculation is not needed.


 The perturbation idir=   3  ipert=   2 is
 symmetric of a previously calculated perturbation.
 So, its SCF calculation is not needed.


 The perturbation idir=   1  ipert=   4 is
 symmetric of a previously calculated perturbation.
 So, its SCF calculation is not needed.


 The perturbation idir=   2  ipert=   4 is
 symmetric of a previously calculated perturbation.
 So, its SCF calculation is not needed.


 The perturbation idir=   3  ipert=   4 is
 symmetric of a previously calculated perturbation.
 So, its SCF calculation is not needed.


 The perturbation idir=   1  ipert=   6 is
 symmetric of a previously calculated perturbation.
 So, its SCF calculation is not needed.


 The perturbation idir=   2  ipert=   6 is
 symmetric of a previously calculated perturbation.
 So, its SCF calculation is not needed.


 The perturbation idir=   3  ipert=   6 is
 symmetric of a previously calculated perturbation.
 So, its SCF calculation is not needed.


 The perturbation idir=   1  ipert=   8 is
 symmetric of a previously calculated perturbation.
 So, its SCF calculation is not needed.


 The perturbation idir=   2  ipert=   8 is
 symmetric of a previously calculated perturbation.
 So, its SCF calculation is not needed.


 The perturbation idir=   3  ipert=   8 is
 symmetric of a previously calculated perturbation.
 So, its SCF calculation is not needed.


 The perturbation idir=   1  ipert=  10 is
 symmetric of a previously calculated perturbation.
 So, its SCF calculation is not needed.


 The perturbation idir=   2  ipert=  10 is
 symmetric of a previously calculated perturbation.
 So, its SCF calculation is not needed.


 The perturbation idir=   3  ipert=  10 is
 symmetric of a previously calculated perturbation.
 So, its SCF calculation is not needed.


 The perturbation idir=   1  ipert=  12 is
 symmetric of a previously calculated perturbation.
 So, its SCF calculation is not needed.


 The perturbation idir=   2  ipert=  12 is
 symmetric of a previously calculated perturbation.
 So, its SCF calculation is not needed.


 The perturbation idir=   3  ipert=  12 is
 symmetric of a previously calculated perturbation.
 So, its SCF calculation is not needed.


--------------------------------------------------------------------------------
 Perturbation wavevector (in red.coord.)   0.000000  0.000000  0.000000
 Perturbation : displacement of atom   1   along direction   1
 The set of symmetries contains only one element for this perturbation.
 symkpt : not enough symmetry to change the number of k points.

--------------------------------------------------------------------------------

-inwffil : will read wavefunctions from disk file Na2SO42_0_DS1_WFK
--------------------------------------------------------------------------------

 dfpt_looppert : total number of electrons, from k and k+q
  fully or partially occupied states are    6.200000E+01 and    6.200000E+01.
 Initialisation of the first-order wave-functions :
  ireadwf=   0

     iter   2DEtotal(Ha)        deltaE(Ha) residm    vres2
-ETOT  1   332.70519676926     -2.366E+02 1.195E+01 1.273E+06
 ETOT  2   335.72255838069      3.017E+00 4.391E+00 6.774E+05
 ETOT  3   90.114223224507     -2.456E+02 3.668E-01 1.090E+05
 ETOT  4   83.991818309163     -6.122E+00 1.038E-01 5.340E+04
 ETOT  5   67.954682019301     -1.604E+01 2.487E-02 2.079E+03
 ETOT  6   67.828218700005     -1.265E-01 8.596E-03 4.828E+02
 ETOT  7   67.677848648092     -1.504E-01 4.863E-04 2.722E+02
 ETOT  8   67.662624439560     -1.522E-02 9.145E-04 7.851E+01
 ETOT  9   67.655344472196     -7.280E-03 8.192E-05 2.211E+01
 ETOT 10   67.650194253537     -5.150E-03 4.140E-05 1.633E+00
 ETOT 11   67.650130458469     -6.380E-05 5.565E-06 1.869E+00
 ETOT 12   67.650057674341     -7.278E-05 1.005E-06 5.869E-01
 ETOT 13   67.650012385534     -4.529E-05 1.046E-06 3.621E-02
 ETOT 14   67.650010517130     -1.868E-06 1.536E-07 8.651E-03
 ETOT 15   67.650008929972     -1.587E-06 2.145E-08 2.875E-03
 ETOT 16   67.650008760687     -1.693E-07 1.158E-08 9.326E-04
 ETOT 17   67.650008608802     -1.519E-07 2.143E-09 2.126E-04
 ETOT 18   67.650008580943     -2.786E-08 4.518E-10 4.074E-05
 ETOT 19   67.650008579711     -1.232E-09 1.143E-10 1.251E-05
 ETOT 20   67.650008579536     -1.752E-10 2.180E-11 1.626E-05
 ETOT 21   67.650008579125     -4.116E-10 9.970E-12 5.682E-06
 ETOT 22   67.650008578745     -3.801E-10 4.910E-12 3.477E-07
 ETOT 23   67.650008578669     -7.566E-11 8.416E-13 1.954E-08
 ETOT 24   67.650008578680      1.154E-11 1.538E-13 2.114E-08
 ETOT 25   67.650008578668     -1.205E-11 3.792E-14 5.797E-09
 ETOT 26   67.650008578660     -8.754E-12 1.251E-14 1.244E-09
 ETOT 27   67.650008578667      7.333E-12 2.999E-15 2.241E-10
 ETOT 28   67.650008578671      3.695E-12 6.975E-16 1.565E-10
 ETOT 29   67.650008578659     -1.194E-11 3.053E-16 4.709E-11
 ETOT 30   67.650008578667      7.844E-12 1.047E-16 4.256E-12
 ETOT 31   67.650008578665     -1.535E-12 2.179E-17 6.381E-13
 ETOT 32   67.650008578670      4.718E-12 6.341E-18 3.150E-13
 ETOT 33   67.650008578678      8.129E-12 1.161E-18 1.473E-13
 ETOT 34   67.650008578665     -1.245E-11 2.856E-19 3.236E-14
 ETOT 35   67.650008578661     -4.093E-12 4.064E-20 6.284E-15

 At SCF step   35       vres2   =  6.28E-15 < tolvrs=  1.00E-14 =>converged.
-open ddk wf file :Na2SO42_0_DS2_1WF37
-open ddk wf file :Na2SO42_0_DS2_1WF38
-open ddk wf file :Na2SO42_0_DS2_1WF39
================================================================================

 ----iterations are completed or convergence reached----

 Mean square residual over all n,k,spin=  -5.4054E-03; max=  4.0635E-20

 Thirteen components of 2nd-order total energy (hartree) are
 1,2,3: 0th-order hamiltonian combined with 1st-order wavefunctions
     kin0=   6.06314378E+02 eigvalue=   4.11638561E+01  local=  -4.45064683E+02
 4,5,6: 1st-order hamiltonian combined with 1st and 0th-order wfs
 loc psp =  -3.20546139E+02  Hartree=   1.23426157E+02     xc=  -3.13272453E+01
 note that "loc psp" includes a xc core correction that could be resolved
 7,8,9: eventually, occupation + non-local contributions
    edocc=   2.61269071E+01     enl0=   1.81023106E+02   enl1=  -6.82778812E+02
[...]
                       0.000000
                       2.000000  2.000000  2.000000  2.000000  2.000000  2.000000
                       2.000000  2.000000  2.000000  2.000000  2.000000  2.000000
                       2.000000  2.000000  2.000000  2.000000  2.000000  2.000000
                       2.000000  2.000000  2.000000  2.000000  2.000000  2.000000
                       2.000000  2.000000  2.000000  2.000000  1.999999  1.999998
                       1.999996  0.000006  0.000000  0.000000  0.000000  0.000000
                       0.000000
                       2.000000  2.000000  2.000000  2.000000  2.000000  2.000000
                       2.000000  2.000000  2.000000  2.000000  2.000000  2.000000
                       2.000000  2.000000  2.000000  2.000000  2.000000  2.000000
                       2.000000  2.000000  2.000000  2.000000  2.000000  2.000000
                       2.000000  2.000000  2.000000  2.000000  1.999999  1.999998
                       1.999997  0.000006  0.000000  0.000000  0.000000  0.000000
                       0.000000
                       2.000000  2.000000  2.000000  2.000000  2.000000  2.000000
                       2.000000  2.000000  2.000000  2.000000  2.000000  2.000000
                       2.000000  2.000000  2.000000  2.000000  2.000000  2.000000
                       2.000000  2.000000  2.000000  2.000000  2.000000  2.000000
                       2.000000  2.000000  2.000000  2.000000  2.000000  1.999999
                       1.999994  0.000006  0.000000  0.000000  0.000000  0.000000
                       0.000000
                       2.000000  2.000000  2.000000  2.000000  2.000000  2.000000
                       2.000000  2.000000  2.000000  2.000000  2.000000  2.000000
                       2.000000  2.000000  2.000000  2.000000  2.000000  2.000000
                       2.000000  2.000000  2.000000  2.000000  2.000000  2.000000
                       2.000000  2.000000  2.000000  2.000000  2.000000  2.000000
                       1.999989  0.000005  0.000000  0.000000  0.000000  0.000000
                       0.000000
                       2.000000  2.000000  2.000000  2.000000  2.000000  2.000000
                       2.000000  2.000000  2.000000  2.000000  2.000000  2.000000
                       2.000000  2.000000  2.000000  2.000000  2.000000  2.000000
                       2.000000  2.000000  2.000000  2.000000  2.000000  2.000000
                       2.000000  2.000000  2.000000  2.000000  2.000000  2.000000
                       1.999985  0.000005  0.000000  0.000000  0.000000  0.000000
                       0.000000
                       2.000000  2.000000  2.000000  2.000000  2.000000  2.000000
                       2.000000  2.000000  2.000000  2.000000  2.000000  2.000000
                       2.000000  2.000000  2.000000  2.000000  2.000000  2.000000
                       2.000000  2.000000  2.000000  2.000000  2.000000  2.000000
                       2.000000  2.000000  2.000000  2.000000  2.000000  2.000000
                       1.999992  0.000005  0.000000  0.000000  0.000000  0.000000
                       0.000000
                       2.000000  2.000000  2.000000  2.000000  2.000000  2.000000
                       2.000000  2.000000  2.000000  2.000000  2.000000  2.000000
                       2.000000  2.000000  2.000000  2.000000  2.000000  2.000000
                       2.000000  2.000000  2.000000  2.000000  2.000000  2.000000
                       2.000000  2.000000  2.000000  2.000000  1.999999  1.999999
                       1.999995  0.000005  0.000000  0.000000  0.000000  0.000000
                       0.000000
                       2.000000  2.000000  2.000000  2.000000  2.000000  2.000000
                       2.000000  2.000000  2.000000  2.000000  2.000000  2.000000
                       2.000000  2.000000  2.000000  2.000000  2.000000  2.000000
                       2.000000  2.000000  2.000000  2.000000  2.000000  2.000000
                       2.000000  2.000000  2.000000  2.000000  1.999999  1.999998
                       1.999995  0.000006  0.000000  0.000000  0.000000  0.000000
                       0.000000
                       2.000000  2.000000  2.000000  2.000000  2.000000  2.000000
                       2.000000  2.000000  2.000000  2.000000  2.000000  2.000000
                       2.000000  2.000000  2.000000  2.000000  2.000000  2.000000
                       2.000000  2.000000  2.000000  2.000000  2.000000  2.000000
                       2.000000  2.000000  2.000000  2.000000  1.999999  1.999998
                       1.999997  0.000006  0.000000  0.000000  0.000000  0.000000
                       0.000000
                       2.000000  2.000000  2.000000  2.000000  2.000000  2.000000
                       2.000000  2.000000  2.000000  2.000000  2.000000  2.000000
                       2.000000  2.000000  2.000000  2.000000  2.000000  2.000000
                       2.000000  2.000000  2.000000  2.000000  2.000000  2.000000
                       2.000000  2.000000  2.000000  2.000000  2.000000  1.999999
                       1.999992  0.000006  0.000000  0.000000  0.000000  0.000000
                       0.000000
                       2.000000  2.000000  2.000000  2.000000  2.000000  2.000000
                       2.000000  2.000000  2.000000  2.000000  2.000000  2.000000
                       2.000000  2.000000  2.000000  2.000000  2.000000  2.000000
                       2.000000  2.000000  2.000000  2.000000  2.000000  2.000000
                       2.000000  2.000000  2.000000  2.000000  2.000000  2.000000
                       1.999985  0.000005  0.000000  0.000000  0.000000  0.000000
                       0.000000
                       2.000000  2.000000  2.000000  2.000000  2.000000  2.000000
                       2.000000  2.000000  2.000000  2.000000  2.000000  2.000000
                       2.000000  2.000000  2.000000  2.000000  2.000000  2.000000
                       2.000000  2.000000  2.000000  2.000000  2.000000  2.000000
                       2.000000  2.000000  2.000000  2.000000  2.000000  2.000000
                       1.999985  0.000009  0.000000  0.000000  0.000000  0.000000
                       0.000000
                       2.000000  2.000000  2.000000  2.000000  2.000000  2.000000
                       2.000000  2.000000  2.000000  2.000000  2.000000  2.000000
                       2.000000  2.000000  2.000000  2.000000  2.000000  2.000000
                       2.000000  2.000000  2.000000  2.000000  2.000000  2.000000
                       2.000000  2.000000  2.000000  2.000000  2.000000  2.000000
                       1.999991  0.000008  0.000000  0.000000  0.000000  0.000000
                       0.000000
                       2.000000  2.000000  2.000000  2.000000  2.000000  2.000000
                       2.000000  2.000000  2.000000  2.000000  2.000000  2.000000
                       2.000000  2.000000  2.000000  2.000000  2.000000  2.000000
                       2.000000  2.000000  2.000000  2.000000  2.000000  2.000000
                       2.000000  2.000000  2.000000  2.000000  1.999999  1.999999
                       1.999994  0.000008  0.000000  0.000000  0.000000  0.000000
                       0.000000
                       2.000000  2.000000  2.000000  2.000000  2.000000  2.000000
                       2.000000  2.000000  2.000000  2.000000  2.000000  2.000000
                       2.000000  2.000000  2.000000  2.000000  2.000000  2.000000
                       2.000000  2.000000  2.000000  2.000000  2.000000  2.000000
                       2.000000  2.000000  2.000000  2.000000  1.999999  1.999999
                       1.999996  0.000008  0.000000  0.000000  0.000000  0.000000
                       0.000000
                       2.000000  2.000000  2.000000  2.000000  2.000000  2.000000
                       2.000000  2.000000  2.000000  2.000000  2.000000  2.000000
                       2.000000  2.000000  2.000000  2.000000  2.000000  2.000000
                       2.000000  2.000000  2.000000  2.000000  2.000000  2.000000
                       2.000000  2.000000  2.000000  2.000000  1.999999  1.999998
                       1.999998  0.000009  0.000000  0.000000  0.000000  0.000000
                       0.000000
                       2.000000  2.000000  2.000000  2.000000  2.000000  2.000000
                       2.000000  2.000000  2.000000  2.000000  2.000000  2.000000
                       2.000000  2.000000  2.000000  2.000000  2.000000  2.000000
                       2.000000  2.000000  2.000000  2.000000  2.000000  2.000000
                       2.000000  2.000000  2.000000  2.000000  2.000000  1.999999
                       1.999993  0.000010  0.000000  0.000000  0.000000  0.000000
                       0.000000
                       2.000000  2.000000  2.000000  2.000000  2.000000  2.000000
                       2.000000  2.000000  2.000000  2.000000  2.000000  2.000000
                       2.000000  2.000000  2.000000  2.000000  2.000000  2.000000
                       2.000000  2.000000  2.000000  2.000000  2.000000  2.000000
                       2.000000  2.000000  2.000000  2.000000  2.000000  2.000000
                       1.999986  0.000010  0.000000  0.000000  0.000000  0.000000
                       0.000000
                       2.000000  2.000000  2.000000  2.000000  2.000000  2.000000
                       2.000000  2.000000  2.000000  2.000000  2.000000  2.000000
                       2.000000  2.000000  2.000000  2.000000  2.000000  2.000000
                       2.000000  2.000000  2.000000  2.000000  2.000000  2.000000
                       2.000000  2.000000  2.000000  2.000000  2.000000  2.000000
                       1.999988  0.000008  0.000000  0.000000  0.000000  0.000000
                       0.000000
                       prtocc : prtvol=0, do not print more k-points.
           occopt           7
        optdriver1          0
        optdriver2          1
        optdriver3          1
          rfatpol1          1       1
          rfatpol2          1       1
          rfatpol3          1      12
            rfdir1          0       0       0
            rfdir2          1       1       1
            rfdir3          1       1       1
           rfelfd1          0
           rfelfd2          2
           rfelfd3          3
           rfphon1          0
           rfphon2          0
           rfphon3          1
            rprim      1.0000000000E+00  0.0000000000E+00  0.0000000000E+00
                      -1.5057997195E-01  1.1565566695E+00  0.0000000000E+00
                      -2.9394572277E-01 -3.0261136205E-01  1.2024061947E+00
           shiftk      5.00000000E-01  5.00000000E-01  5.00000000E-01
          spgroup           2
           strten1    -1.6025516762E-04 -1.6786158245E-04 -2.1630228596E-04
                       5.2898951159E-06 -1.6312319833E-05 -2.4250737785E-05
           strten3     0.0000000000E+00  0.0000000000E+00  0.0000000000E+00
                       0.0000000000E+00  0.0000000000E+00  0.0000000000E+00
           symrel      1  0  0   0  1  0   0  0  1      -1  0  0   0 -1  0   0  0 -1
           tolvrs1     1.00000000E-14
           tolvrs2     0.00000000E+00
           tolvrs3     1.00000000E-14
           tolwfr1     0.00000000E+00
           tolwfr2     1.00000000E-18
           tolwfr3     0.00000000E+00
           tsmear      2.00000000E-02 Hartree
            typat      1  1  2  2  3  3  3  3  3  3  3  3
              wtk        0.00952    0.00952    0.00952    0.00952    0.00952    0.00952
                         0.00952    0.00952    0.00952    0.00952    0.00952    0.00952
                         0.00952    0.00952    0.00952    0.00952    0.00952    0.00952
                         0.00952    0.00952    0.00952    0.00952    0.00952    0.00952
                         0.00952    0.00952    0.00952    0.00952    0.00952    0.00952
                         0.00952    0.00952    0.00952    0.00952    0.00952    0.00952
                         0.00952    0.00952    0.00952    0.00952    0.00952    0.00952
                         0.00952    0.00952    0.00952    0.00952    0.00952    0.00952
                         0.00952    0.00952
                       outvars : Printing only first  50 k-points.
           xangst      2.0029547195E+00  3.9549151903E+00  1.3789961415E+00
                       6.5221241353E-01  1.2694330805E-01  4.3685053689E+00
                      -3.1703746724E-01  1.4160659347E+00  1.2489326220E+00
                       2.9722046003E+00  2.6657925636E+00  4.4985688884E+00
                       2.1820726291E+00 -3.8355418610E-01  2.3950845574E+00
                       4.7309450392E-01  4.4654126844E+00  3.3524169530E+00
                       2.8788252670E+00  4.8010099719E+00  5.9003194105E-01
                      -2.2365813391E-01 -7.1915147360E-01  5.1574695694E+00
                       8.3331645804E-01  3.4437836882E+00  6.9429741079E-01
                       1.8218506750E+00  6.3807481012E-01  5.0532040997E+00
                       2.6646775074E+00  2.9512752148E+00  2.1956534325E+00
                      -9.5103743789E-03  1.1305832836E+00  3.5518480779E+00
            xcart      3.7850358764E+00  7.4737065885E+00  2.6059250457E+00
                       1.2325028420E+00  2.3988808661E-01  8.2552787574E+00
                      -5.9911398694E-01  2.6759768027E+00  2.3601406141E+00
                       5.6166527054E+00  5.0376178723E+00  8.5010631890E+00
                       4.1235196711E+00 -7.2481236885E-01  4.5260538787E+00
                       8.9401904738E-01  8.4384070439E+00  6.3351499244E+00
                       5.4401913390E+00  9.0725940082E+00  1.1149987782E+00
                      -4.2265262048E-01 -1.3589993332E+00  9.7462050249E+00
                       1.5747398877E+00  6.5078080316E+00  1.3120319612E+00
                       3.4427988308E+00  1.2057866434E+00  9.5491718419E+00
                       5.0355107215E+00  5.5771018987E+00  4.1491836702E+00
                      -1.7972002997E-02  2.1364927764E+00  6.7120201329E+00
             xred      6.0673077069E-01  7.7816642934E-01  2.3992967014E-01
                       3.9326922931E-01  2.2183357066E-01  7.6007032987E-01
                       4.4680569463E-02  3.1300289542E-01  2.1730009462E-01
                       9.5531943054E-01  6.8699710458E-01  7.8269990538E-01
                       5.8496397409E-01  3.9653908578E-02  4.1671751683E-01
                       4.1503602591E-01  9.6034609142E-01  5.8328248317E-01
                       7.6725456574E-01  8.9529650667E-01  1.0265885794E-01
                       2.3274543426E-01  1.0470349333E-01  8.9734114206E-01
                       3.0840316456E-01  6.5453970651E-01  1.2079986574E-01
                       6.9159683544E-01  3.4546029349E-01  8.7920013426E-01
                       7.6519418837E-01  6.3379931322E-01  3.8201876564E-01
                       2.3480581163E-01  3.6620068678E-01  6.1798123436E-01
            znucl       16.00000   11.00000    8.00000

================================================================================


- Timing analysis has been suppressed with timopt=0



================================================================================

 Suggested references for the acknowledgment of ABINIT usage.

 The users of ABINIT have little formal obligations with respect to the ABINIT group
 (those specified in the GNU General Public License, http://www.gnu.org/copyleft/gpl.txt).
 However, it is common practice in the scientific literature,
 to acknowledge the efforts of people that have made the research possible.
 In this spirit, please find below suggested citations of work written by ABINIT developers,
 corresponding to implementations inside of ABINIT that you have used in the present run.
 Note also that it will be of great value to readers of publications presenting these results,
 to read papers enabling them to understand the theoretical formalism and details
 of the ABINIT implementation.
 For information on why they are suggested, see also http://www.abinit.org/about/?text=acknowledgments.
-
- [1] Recent developments in the ABINIT software package.
- Computer Phys. Comm. 205, 106 (2016).
- X.Gonze, F.Jollet, F.Abreu Araujo, D.Adams, B.Amadon, T.Applencourt,
- C.Audouze, J.-M.Beuken, J.Bieder, A.Bokhanchuk, E.Bousquet, F.Bruneval
- D.Caliste, M.Cote, F.Dahm, F.Da Pieve, M.Delaveau, M.Di Gennaro,
- B.Dorado, C.Espejo, G.Geneste, L.Genovese, A.Gerossier, M.Giantomassi,
- Y.Gillet, D.R.Hamann, L.He, G.Jomard, J.Laflamme Janssen, S.Le Roux,
- A.Levitt, A.Lherbier, F.Liu, I.Lukacevic, A.Martin, C.Martins,
- M.J.T.Oliveira, S.Ponce, Y.Pouillon, T.Rangel, G.-M.Rignanese,
- A.H.Romero, B.Rousseau, O.Rubel, A.A.Shukri, M.Stankovski, M.Torrent,
- M.J.Van Setten, B.Van Troeye, M.J.Verstraete, D.Waroquier, J.Wiktor,
- B.Xue, A.Zhou, J.W.Zwanziger.
- Comment : the fourth generic paper describing the ABINIT project.
- Note that a version of this paper, that is not formatted for Computer Phys. Comm. 
- is available at http://www.abinit.org/about/ABINIT16.pdf .
- The licence allows the authors to put it on the Web.
-
- [2] First-principles responses of solids to atomic displacements and homogeneous electric fields:,
- implementation of a conjugate-gradient algorithm. X. Gonze, Phys. Rev. B55, 10337 (1997).
- Comment : Non-vanishing rfphon and/or rfelfd, in the norm-conserving case.
-
- [3] Dynamical matrices, Born effective charges, dielectric permittivity tensors, and ,
- interatomic force constants from density-functional perturbation theory,
- X. Gonze and C. Lee, Phys. Rev. B55, 10355 (1997).
- Comment : Non-vanishing rfphon and/or rfelfd, in the norm-conserving case.
-
- [4] ABINIT : First-principles approach of materials and nanosystem properties.
- Computer Phys. Comm. 180, 2582-2615 (2009).
- X. Gonze, B. Amadon, P.-M. Anglade, J.-M. Beuken, F. Bottin, P. Boulanger, F. Bruneval,
- D. Caliste, R. Caracas, M. Cote, T. Deutsch, L. Genovese, Ph. Ghosez, M. Giantomassi
- S. Goedecker, D.R. Hamann, P. Hermet, F. Jollet, G. Jomard, S. Leroux, M. Mancini, S. Mazevet,
- M.J.T. Oliveira, G. Onida, Y. Pouillon, T. Rangel, G.-M. Rignanese, D. Sangalli, R. Shaltaf,
- M. Torrent, M.J. Verstraete, G. Zerah, J.W. Zwanziger
- Comment : the third generic paper describing the ABINIT project.
- Note that a version of this paper, that is not formatted for Computer Phys. Comm. 
- is available at http://www.abinit.org/about/ABINIT_CPC_v10.pdf .
- The licence allows the authors to put it on the Web.
-
- [5] A brief introduction to the ABINIT software package.
- Z. Kristallogr. 220, 558-562 (2005).
- X. Gonze, G.-M. Rignanese, M. Verstraete, J.-M. Beuken, Y. Pouillon, R. Caracas, F. Jollet,
- M. Torrent, G. Zerah, M. Mikami, Ph. Ghosez, M. Veithen, J.-Y. Raty, V. Olevano, F. Bruneval,
- L. Reining, R. Godby, G. Onida, D.R. Hamann, and D.C. Allan.
- Comment : the second generic paper describing the ABINIT project. Note that this paper
- should be cited especially if you are using the GW part of ABINIT, as several authors
- of this part are not in the list of authors of the first or third paper.
- The .pdf of the latter paper is available at http://www.abinit.org/about/zfk_0505-06_558-562.pdf.
- Note that it should not redistributed (Copyright by Oldenburg Wissenshaftverlag,
- the licence allows the authors to put it on the Web).
-
- Proc.   0 individual time (sec): cpu=      46039.9  wall=      46119.1

================================================================================

 Calculation completed.
.Delivered   0 WARNINGs and   0 COMMENTs to log file.
+Overall time at end (sec) : cpu=     184152.6  wall=     184476.6
