
.Version 7.8.2 of ABINIT 
.(MPI version, prepared for a x86_64_linux_intel14.0 computer) 

.Copyright (C) 1998-2014 ABINIT group . 
 ABINIT comes with ABSOLUTELY NO WARRANTY.
 It is free software, and you are welcome to redistribute it
 under certain conditions (GNU General Public License,
 see ~abinit/COPYING or http://www.gnu.org/copyleft/gpl.txt).

 ABINIT is a project of the Universite Catholique de Louvain,
 Corning Inc. and other collaborators, see ~abinit/doc/developers/contributors.txt .
 Please read ~abinit/doc/users/acknowledgments.html for suggested
 acknowledgments of the ABINIT effort.
 For more information, see http://www.abinit.org .

.Starting date : Fri 10 Jun 2016.
- ( at 13h34 )
  
- input  file    -> Na2SO42.in
- output file    -> Na2SO42.out
- root for input  files -> Na2SO42_i
- root for output files -> Na2SO42_0
 
 
 DATASET    1 : space group P-1 (#  2); Bravais aP (primitive triclinic)
================================================================================
 Values of the parameters that define the memory need for DATASET  1.
   intxc =         0  ionmov =         0    iscf =         5 xclevel =         2
  lmnmax =         2   lnmax =         2   mband =        37  mffmem =         1
P  mgfft =        72   mkmem =         4 mpssoang=         3     mpw =     12430
  mqgrid =      3093   natom =        12    nfft =    233280    nkpt =       105
  nloalg =         4  nspden =         1 nspinor =         1  nsppol =         1
    nsym =         2  n1xccc =      2501  ntypat =         3  occopt =         7
================================================================================
P This job should need less than                      94.802 Mbytes of memory.
  Rough estimation (10% accuracy) of disk space for files :
_ WF disk file :    736.857 Mbytes ; DEN or POT disk file :      1.782 Mbytes.
================================================================================
 
 
 DATASET    2 : space group P-1 (#  2); Bravais aP (primitive triclinic)
================================================================================
 Values of the parameters that define the memory need for DATASET  2 (RF).
   intxc =         0    iscf =        -3 xclevel =         2  lmnmax =         2
   lnmax =         2   mband =        37  mffmem =         1   mgfft =        72
P  mkmem =         5  mkqmem =         5  mk1mem =         5 mpssoang=         3
     mpw =     12430  mqgrid =      3093   natom =        12    nfft =    233280
    nkpt =       105  nloalg =         4  nspden =         1 nspinor =         1
  nsppol =         1    nsym =         2  n1xccc =      2501  ntypat =         3
  occopt =         7
================================================================================
P This job should need less than                     161.129 Mbytes of memory.
  Rough estimation (10% accuracy) of disk space for files :
_ WF disk file :    736.857 Mbytes ; DEN or POT disk file :      1.782 Mbytes.
================================================================================
 
 
 DATASET    3 : space group P-1 (#  2); Bravais aP (primitive triclinic)
================================================================================
 Values of the parameters that define the memory need for DATASET  3 (RF).
   intxc =         0    iscf =         5 xclevel =         2  lmnmax =         2
   lnmax =         2   mband =        37  mffmem =         1   mgfft =        72
P  mkmem =         5  mkqmem =         5  mk1mem =         5 mpssoang=         3
     mpw =     12430  mqgrid =      3093   natom =        12    nfft =    233280
    nkpt =       105  nloalg =         4  nspden =         1 nspinor =         1
  nsppol =         1    nsym =         2  n1xccc =      2501  ntypat =         3
  occopt =         7
================================================================================
P This job should need less than                     178.927 Mbytes of memory.
  Rough estimation (10% accuracy) of disk space for files :
_ WF disk file :    736.857 Mbytes ; DEN or POT disk file :      1.782 Mbytes.
================================================================================
 
--------------------------------------------------------------------------------
------------- Echo of variables that govern the present computation ------------
--------------------------------------------------------------------------------
-
- outvars: echo of selected default values                                      
-   accesswff0 =  0 , fftalg0 =312 , wfoptalg0 =  0
-
- outvars: echo of global parameters not present in the input file              
-  max_nthreads =    0
-
 -outvars: echo values of preprocessed input variables --------
            acell      9.0328907580E+00  9.0328907580E+00  9.0328907580E+00 Bohr
              amu      3.20660000E+01  2.29897680E+01  1.59994000E+01
        autoparal           1
           diemac      9.00000000E+00
             ecut      4.00000000E+01 Hartree
-          fftalg         312
           getddk1          0
           getddk2          0
           getddk3          2
           getwfk1          0
           getwfk2          1
           getwfk3          1
             iscf1          5
             iscf2         -3
             iscf3          5
              ixc          11
           jdtset        1    2    3
              kpt      7.14285714E-02  8.33333333E-02  1.00000000E-01
                       2.14285714E-01  8.33333333E-02  1.00000000E-01
                       3.57142857E-01  8.33333333E-02  1.00000000E-01
                       5.00000000E-01  8.33333333E-02  1.00000000E-01
                      -3.57142857E-01  8.33333333E-02  1.00000000E-01
                      -2.14285714E-01  8.33333333E-02  1.00000000E-01
                      -7.14285714E-02  8.33333333E-02  1.00000000E-01
                       7.14285714E-02  2.50000000E-01  1.00000000E-01
                       2.14285714E-01  2.50000000E-01  1.00000000E-01
                       3.57142857E-01  2.50000000E-01  1.00000000E-01
                       5.00000000E-01  2.50000000E-01  1.00000000E-01
                      -3.57142857E-01  2.50000000E-01  1.00000000E-01
                      -2.14285714E-01  2.50000000E-01  1.00000000E-01
                      -7.14285714E-02  2.50000000E-01  1.00000000E-01
                       7.14285714E-02  4.16666667E-01  1.00000000E-01
                       2.14285714E-01  4.16666667E-01  1.00000000E-01
                       3.57142857E-01  4.16666667E-01  1.00000000E-01
                       5.00000000E-01  4.16666667E-01  1.00000000E-01
                      -3.57142857E-01  4.16666667E-01  1.00000000E-01
                      -2.14285714E-01  4.16666667E-01  1.00000000E-01
                      -7.14285714E-02  4.16666667E-01  1.00000000E-01
                       7.14285714E-02 -4.16666667E-01  1.00000000E-01
                       2.14285714E-01 -4.16666667E-01  1.00000000E-01
                       3.57142857E-01 -4.16666667E-01  1.00000000E-01
                       5.00000000E-01 -4.16666667E-01  1.00000000E-01
                      -3.57142857E-01 -4.16666667E-01  1.00000000E-01
                      -2.14285714E-01 -4.16666667E-01  1.00000000E-01
                      -7.14285714E-02 -4.16666667E-01  1.00000000E-01
                       7.14285714E-02 -2.50000000E-01  1.00000000E-01
                       2.14285714E-01 -2.50000000E-01  1.00000000E-01
                       3.57142857E-01 -2.50000000E-01  1.00000000E-01
                       5.00000000E-01 -2.50000000E-01  1.00000000E-01
                      -3.57142857E-01 -2.50000000E-01  1.00000000E-01
                      -2.14285714E-01 -2.50000000E-01  1.00000000E-01
                      -7.14285714E-02 -2.50000000E-01  1.00000000E-01
                       7.14285714E-02 -8.33333333E-02  1.00000000E-01
                       2.14285714E-01 -8.33333333E-02  1.00000000E-01
                       3.57142857E-01 -8.33333333E-02  1.00000000E-01
                       5.00000000E-01 -8.33333333E-02  1.00000000E-01
                      -3.57142857E-01 -8.33333333E-02  1.00000000E-01
                      -2.14285714E-01 -8.33333333E-02  1.00000000E-01
                      -7.14285714E-02 -8.33333333E-02  1.00000000E-01
                       7.14285714E-02  8.33333333E-02  3.00000000E-01
                       2.14285714E-01  8.33333333E-02  3.00000000E-01
                       3.57142857E-01  8.33333333E-02  3.00000000E-01
                       5.00000000E-01  8.33333333E-02  3.00000000E-01
                      -3.57142857E-01  8.33333333E-02  3.00000000E-01
                      -2.14285714E-01  8.33333333E-02  3.00000000E-01
                      -7.14285714E-02  8.33333333E-02  3.00000000E-01
                       7.14285714E-02  2.50000000E-01  3.00000000E-01
                       outvar_i_n : Printing only first  50 k-points.
         kptrlatt        7    0    0      0    6    0      0    0    5
          kptrlen      5.75516084E+01
P           mkmem1          4
P           mkmem2          5
P           mkmem3          5
P          mkqmem1          4
P          mkqmem2          5
P          mkqmem3          5
P          mk1mem1          4
P          mk1mem2          5
P          mk1mem3          5
            natom          12
            nband          37
           nbdbuf1          0
           nbdbuf2          2
           nbdbuf3          2
           ndtset           3
            ngfft          54      60      72
             nkpt         105
-           npkpt1         32
-           npkpt2          1
-           npkpt3          1
             nqpt1          0
             nqpt2          1
             nqpt3          1
            nstep         150
             nsym           2
           ntypat           3
              occ      2.000000  2.000000  2.000000  2.000000  2.000000  2.000000
                       2.000000  2.000000  2.000000  2.000000  2.000000  2.000000
                       2.000000  2.000000  2.000000  2.000000  2.000000  2.000000
                       2.000000  2.000000  2.000000  2.000000  2.000000  2.000000
                       2.000000  2.000000  2.000000  2.000000  2.000000  2.000000
                       2.000000  0.000000  0.000000  0.000000  0.000000  0.000000
                       0.000000
                       2.000000  2.000000  2.000000  2.000000  2.000000  2.000000
                       2.000000  2.000000  2.000000  2.000000  2.000000  2.000000
                       2.000000  2.000000  2.000000  2.000000  2.000000  2.000000
                       2.000000  2.000000  2.000000  2.000000  2.000000  2.000000
                       2.000000  2.000000  2.000000  2.000000  2.000000  2.000000
                       2.000000  0.000000  0.000000  0.000000  0.000000  0.000000
                       0.000000
                       2.000000  2.000000  2.000000  2.000000  2.000000  2.000000
                       2.000000  2.000000  2.000000  2.000000  2.000000  2.000000
                       2.000000  2.000000  2.000000  2.000000  2.000000  2.000000
                       2.000000  2.000000  2.000000  2.000000  2.000000  2.000000
                       2.000000  2.000000  2.000000  2.000000  2.000000  2.000000
                       2.000000  0.000000  0.000000  0.000000  0.000000  0.000000
                       0.000000
                       2.000000  2.000000  2.000000  2.000000  2.000000  2.000000
                       2.000000  2.000000  2.000000  2.000000  2.000000  2.000000
                       2.000000  2.000000  2.000000  2.000000  2.000000  2.000000
                       2.000000  2.000000  2.000000  2.000000  2.000000  2.000000
                       2.000000  2.000000  2.000000  2.000000  2.000000  2.000000
                       2.000000  0.000000  0.000000  0.000000  0.000000  0.000000
                       0.000000
                       2.000000  2.000000  2.000000  2.000000  2.000000  2.000000
                       2.000000  2.000000  2.000000  2.000000  2.000000  2.000000
                       2.000000  2.000000  2.000000  2.000000  2.000000  2.000000
                       2.000000  2.000000  2.000000  2.000000  2.000000  2.000000
                       2.000000  2.000000  2.000000  2.000000  2.000000  2.000000
                       2.000000  0.000000  0.000000  0.000000  0.000000  0.000000
                       0.000000
                       2.000000  2.000000  2.000000  2.000000  2.000000  2.000000
                       2.000000  2.000000  2.000000  2.000000  2.000000  2.000000
                       2.000000  2.000000  2.000000  2.000000  2.000000  2.000000
                       2.000000  2.000000  2.000000  2.000000  2.000000  2.000000
                       2.000000  2.000000  2.000000  2.000000  2.000000  2.000000
                       2.000000  0.000000  0.000000  0.000000  0.000000  0.000000
                       0.000000
                       2.000000  2.000000  2.000000  2.000000  2.000000  2.000000
                       2.000000  2.000000  2.000000  2.000000  2.000000  2.000000
                       2.000000  2.000000  2.000000  2.000000  2.000000  2.000000
                       2.000000  2.000000  2.000000  2.000000  2.000000  2.000000
                       2.000000  2.000000  2.000000  2.000000  2.000000  2.000000
                       2.000000  0.000000  0.000000  0.000000  0.000000  0.000000
                       0.000000
                       2.000000  2.000000  2.000000  2.000000  2.000000  2.000000
                       2.000000  2.000000  2.000000  2.000000  2.000000  2.000000
                       2.000000  2.000000  2.000000  2.000000  2.000000  2.000000
                       2.000000  2.000000  2.000000  2.000000  2.000000  2.000000
                       2.000000  2.000000  2.000000  2.000000  2.000000  2.000000
                       2.000000  0.000000  0.000000  0.000000  0.000000  0.000000
                       0.000000
                       2.000000  2.000000  2.000000  2.000000  2.000000  2.000000
                       2.000000  2.000000  2.000000  2.000000  2.000000  2.000000
                       2.000000  2.000000  2.000000  2.000000  2.000000  2.000000
                       2.000000  2.000000  2.000000  2.000000  2.000000  2.000000
                       2.000000  2.000000  2.000000  2.000000  2.000000  2.000000
                       2.000000  0.000000  0.000000  0.000000  0.000000  0.000000
                       0.000000
                       2.000000  2.000000  2.000000  2.000000  2.000000  2.000000
                       2.000000  2.000000  2.000000  2.000000  2.000000  2.000000
                       2.000000  2.000000  2.000000  2.000000  2.000000  2.000000
                       2.000000  2.000000  2.000000  2.000000  2.000000  2.000000
                       2.000000  2.000000  2.000000  2.000000  2.000000  2.000000
                       2.000000  0.000000  0.000000  0.000000  0.000000  0.000000
                       0.000000
                       2.000000  2.000000  2.000000  2.000000  2.000000  2.000000
                       2.000000  2.000000  2.000000  2.000000  2.000000  2.000000
                       2.000000  2.000000  2.000000  2.000000  2.000000  2.000000
                       2.000000  2.000000  2.000000  2.000000  2.000000  2.000000
                       2.000000  2.000000  2.000000  2.000000  2.000000  2.000000
                       2.000000  0.000000  0.000000  0.000000  0.000000  0.000000
                       0.000000
                       2.000000  2.000000  2.000000  2.000000  2.000000  2.000000
                       2.000000  2.000000  2.000000  2.000000  2.000000  2.000000
                       2.000000  2.000000  2.000000  2.000000  2.000000  2.000000
                       2.000000  2.000000  2.000000  2.000000  2.000000  2.000000
                       2.000000  2.000000  2.000000  2.000000  2.000000  2.000000
                       2.000000  0.000000  0.000000  0.000000  0.000000  0.000000
                       0.000000
                       2.000000  2.000000  2.000000  2.000000  2.000000  2.000000
                       2.000000  2.000000  2.000000  2.000000  2.000000  2.000000
                       2.000000  2.000000  2.000000  2.000000  2.000000  2.000000
                       2.000000  2.000000  2.000000  2.000000  2.000000  2.000000
                       2.000000  2.000000  2.000000  2.000000  2.000000  2.000000
                       2.000000  0.000000  0.000000  0.000000  0.000000  0.000000
                       0.000000
                       2.000000  2.000000  2.000000  2.000000  2.000000  2.000000
                       2.000000  2.000000  2.000000  2.000000  2.000000  2.000000
                       2.000000  2.000000  2.000000  2.000000  2.000000  2.000000
                       2.000000  2.000000  2.000000  2.000000  2.000000  2.000000
                       2.000000  2.000000  2.000000  2.000000  2.000000  2.000000
                       2.000000  0.000000  0.000000  0.000000  0.000000  0.000000
                       0.000000
                       2.000000  2.000000  2.000000  2.000000  2.000000  2.000000
                       2.000000  2.000000  2.000000  2.000000  2.000000  2.000000
                       2.000000  2.000000  2.000000  2.000000  2.000000  2.000000
                       2.000000  2.000000  2.000000  2.000000  2.000000  2.000000
                       2.000000  2.000000  2.000000  2.000000  2.000000  2.000000
                       2.000000  0.000000  0.000000  0.000000  0.000000  0.000000
                       0.000000
                       2.000000  2.000000  2.000000  2.000000  2.000000  2.000000
                       2.000000  2.000000  2.000000  2.000000  2.000000  2.000000
                       2.000000  2.000000  2.000000  2.000000  2.000000  2.000000
                       2.000000  2.000000  2.000000  2.000000  2.000000  2.000000
                       2.000000  2.000000  2.000000  2.000000  2.000000  2.000000
                       2.000000  0.000000  0.000000  0.000000  0.000000  0.000000
                       0.000000
                       2.000000  2.000000  2.000000  2.000000  2.000000  2.000000
                       2.000000  2.000000  2.000000  2.000000  2.000000  2.000000
                       2.000000  2.000000  2.000000  2.000000  2.000000  2.000000
                       2.000000  2.000000  2.000000  2.000000  2.000000  2.000000
                       2.000000  2.000000  2.000000  2.000000  2.000000  2.000000
                       2.000000  0.000000  0.000000  0.000000  0.000000  0.000000
                       0.000000
                       2.000000  2.000000  2.000000  2.000000  2.000000  2.000000
                       2.000000  2.000000  2.000000  2.000000  2.000000  2.000000
                       2.000000  2.000000  2.000000  2.000000  2.000000  2.000000
                       2.000000  2.000000  2.000000  2.000000  2.000000  2.000000
                       2.000000  2.000000  2.000000  2.000000  2.000000  2.000000
                       2.000000  0.000000  0.000000  0.000000  0.000000  0.000000
                       0.000000
                       2.000000  2.000000  2.000000  2.000000  2.000000  2.000000
                       2.000000  2.000000  2.000000  2.000000  2.000000  2.000000
                       2.000000  2.000000  2.000000  2.000000  2.000000  2.000000
                       2.000000  2.000000  2.000000  2.000000  2.000000  2.000000
                       2.000000  2.000000  2.000000  2.000000  2.000000  2.000000
                       2.000000  0.000000  0.000000  0.000000  0.000000  0.000000
                       0.000000
                       2.000000  2.000000  2.000000  2.000000  2.000000  2.000000
                       2.000000  2.000000  2.000000  2.000000  2.000000  2.000000
                       2.000000  2.000000  2.000000  2.000000  2.000000  2.000000
                       2.000000  2.000000  2.000000  2.000000  2.000000  2.000000
                       2.000000  2.000000  2.000000  2.000000  2.000000  2.000000
                       2.000000  0.000000  0.000000  0.000000  0.000000  0.000000
                       0.000000
                       2.000000  2.000000  2.000000  2.000000  2.000000  2.000000
                       2.000000  2.000000  2.000000  2.000000  2.000000  2.000000
                       2.000000  2.000000  2.000000  2.000000  2.000000  2.000000
                       2.000000  2.000000  2.000000  2.000000  2.000000  2.000000
                       2.000000  2.000000  2.000000  2.000000  2.000000  2.000000
                       2.000000  0.000000  0.000000  0.000000  0.000000  0.000000
                       0.000000
                       2.000000  2.000000  2.000000  2.000000  2.000000  2.000000
                       2.000000  2.000000  2.000000  2.000000  2.000000  2.000000
                       2.000000  2.000000  2.000000  2.000000  2.000000  2.000000
                       2.000000  2.000000  2.000000  2.000000  2.000000  2.000000
                       2.000000  2.000000  2.000000  2.000000  2.000000  2.000000
                       2.000000  0.000000  0.000000  0.000000  0.000000  0.000000
                       0.000000
                       2.000000  2.000000  2.000000  2.000000  2.000000  2.000000
                       2.000000  2.000000  2.000000  2.000000  2.000000  2.000000
                       2.000000  2.000000  2.000000  2.000000  2.000000  2.000000
                       2.000000  2.000000  2.000000  2.000000  2.000000  2.000000
                       2.000000  2.000000  2.000000  2.000000  2.000000  2.000000
                       2.000000  0.000000  0.000000  0.000000  0.000000  0.000000
                       0.000000
                       2.000000  2.000000  2.000000  2.000000  2.000000  2.000000
                       2.000000  2.000000  2.000000  2.000000  2.000000  2.000000
                       2.000000  2.000000  2.000000  2.000000  2.000000  2.000000
                       2.000000  2.000000  2.000000  2.000000  2.000000  2.000000
                       2.000000  2.000000  2.000000  2.000000  2.000000  2.000000
                       2.000000  0.000000  0.000000  0.000000  0.000000  0.000000
                       0.000000
                       2.000000  2.000000  2.000000  2.000000  2.000000  2.000000
                       2.000000  2.000000  2.000000  2.000000  2.000000  2.000000
                       2.000000  2.000000  2.000000  2.000000  2.000000  2.000000
                       2.000000  2.000000  2.000000  2.000000  2.000000  2.000000
                       2.000000  2.000000  2.000000  2.000000  2.000000  2.000000
                       2.000000  0.000000  0.000000  0.000000  0.000000  0.000000
                       0.000000
                       2.000000  2.000000  2.000000  2.000000  2.000000  2.000000
                       2.000000  2.000000  2.000000  2.000000  2.000000  2.000000
                       2.000000  2.000000  2.000000  2.000000  2.000000  2.000000
                       2.000000  2.000000  2.000000  2.000000  2.000000  2.000000
                       2.000000  2.000000  2.000000  2.000000  2.000000  2.000000
                       2.000000  0.000000  0.000000  0.000000  0.000000  0.000000
                       0.000000
                       2.000000  2.000000  2.000000  2.000000  2.000000  2.000000
                       2.000000  2.000000  2.000000  2.000000  2.000000  2.000000
                       2.000000  2.000000  2.000000  2.000000  2.000000  2.000000
                       2.000000  2.000000  2.000000  2.000000  2.000000  2.000000
                       2.000000  2.000000  2.000000  2.000000  2.000000  2.000000
                       2.000000  0.000000  0.000000  0.000000  0.000000  0.000000
                       0.000000
                       2.000000  2.000000  2.000000  2.000000  2.000000  2.000000
                       2.000000  2.000000  2.000000  2.000000  2.000000  2.000000
                       2.000000  2.000000  2.000000  2.000000  2.000000  2.000000
                       2.000000  2.000000  2.000000  2.000000  2.000000  2.000000
                       2.000000  2.000000  2.000000  2.000000  2.000000  2.000000
                       2.000000  0.000000  0.000000  0.000000  0.000000  0.000000
                       0.000000
                       2.000000  2.000000  2.000000  2.000000  2.000000  2.000000
                       2.000000  2.000000  2.000000  2.000000  2.000000  2.000000
                       2.000000  2.000000  2.000000  2.000000  2.000000  2.000000
                       2.000000  2.000000  2.000000  2.000000  2.000000  2.000000
                       2.000000  2.000000  2.000000  2.000000  2.000000  2.000000
                       2.000000  0.000000  0.000000  0.000000  0.000000  0.000000
                       0.000000
                       2.000000  2.000000  2.000000  2.000000  2.000000  2.000000
                       2.000000  2.000000  2.000000  2.000000  2.000000  2.000000
                       2.000000  2.000000  2.000000  2.000000  2.000000  2.000000
                       2.000000  2.000000  2.000000  2.000000  2.000000  2.000000
                       2.000000  2.000000  2.000000  2.000000  2.000000  2.000000
                       2.000000  0.000000  0.000000  0.000000  0.000000  0.000000
                       0.000000
                       2.000000  2.000000  2.000000  2.000000  2.000000  2.000000
                       2.000000  2.000000  2.000000  2.000000  2.000000  2.000000
                       2.000000  2.000000  2.000000  2.000000  2.000000  2.000000
                       2.000000  2.000000  2.000000  2.000000  2.000000  2.000000
                       2.000000  2.000000  2.000000  2.000000  2.000000  2.000000
                       2.000000  0.000000  0.000000  0.000000  0.000000  0.000000
                       0.000000
                       2.000000  2.000000  2.000000  2.000000  2.000000  2.000000
                       2.000000  2.000000  2.000000  2.000000  2.000000  2.000000
                       2.000000  2.000000  2.000000  2.000000  2.000000  2.000000
                       2.000000  2.000000  2.000000  2.000000  2.000000  2.000000
                       2.000000  2.000000  2.000000  2.000000  2.000000  2.000000
                       2.000000  0.000000  0.000000  0.000000  0.000000  0.000000
                       0.000000
                       2.000000  2.000000  2.000000  2.000000  2.000000  2.000000
                       2.000000  2.000000  2.000000  2.000000  2.000000  2.000000
                       2.000000  2.000000  2.000000  2.000000  2.000000  2.000000
                       2.000000  2.000000  2.000000  2.000000  2.000000  2.000000
                       2.000000  2.000000  2.000000  2.000000  2.000000  2.000000
                       2.000000  0.000000  0.000000  0.000000  0.000000  0.000000
                       0.000000
                       2.000000  2.000000  2.000000  2.000000  2.000000  2.000000
                       2.000000  2.000000  2.000000  2.000000  2.000000  2.000000
                       2.000000  2.000000  2.000000  2.000000  2.000000  2.000000
                       2.000000  2.000000  2.000000  2.000000  2.000000  2.000000
                       2.000000  2.000000  2.000000  2.000000  2.000000  2.000000
                       2.000000  0.000000  0.000000  0.000000  0.000000  0.000000
                       0.000000
                       2.000000  2.000000  2.000000  2.000000  2.000000  2.000000
                       2.000000  2.000000  2.000000  2.000000  2.000000  2.000000
                       2.000000  2.000000  2.000000  2.000000  2.000000  2.000000
                       2.000000  2.000000  2.000000  2.000000  2.000000  2.000000
                       2.000000  2.000000  2.000000  2.000000  2.000000  2.000000
                       2.000000  0.000000  0.000000  0.000000  0.000000  0.000000
                       0.000000
                       2.000000  2.000000  2.000000  2.000000  2.000000  2.000000
                       2.000000  2.000000  2.000000  2.000000  2.000000  2.000000
                       2.000000  2.000000  2.000000  2.000000  2.000000  2.000000
                       2.000000  2.000000  2.000000  2.000000  2.000000  2.000000
                       2.000000  2.000000  2.000000  2.000000  2.000000  2.000000
                       2.000000  0.000000  0.000000  0.000000  0.000000  0.000000
                       0.000000
                       2.000000  2.000000  2.000000  2.000000  2.000000  2.000000
                       2.000000  2.000000  2.000000  2.000000  2.000000  2.000000
                       2.000000  2.000000  2.000000  2.000000  2.000000  2.000000
                       2.000000  2.000000  2.000000  2.000000  2.000000  2.000000
                       2.000000  2.000000  2.000000  2.000000  2.000000  2.000000
                       2.000000  0.000000  0.000000  0.000000  0.000000  0.000000
                       0.000000
                       2.000000  2.000000  2.000000  2.000000  2.000000  2.000000
                       2.000000  2.000000  2.000000  2.000000  2.000000  2.000000
                       2.000000  2.000000  2.000000  2.000000  2.000000  2.000000
                       2.000000  2.000000  2.000000  2.000000  2.000000  2.000000
                       2.000000  2.000000  2.000000  2.000000  2.000000  2.000000
                       2.000000  0.000000  0.000000  0.000000  0.000000  0.000000
                       0.000000
                       2.000000  2.000000  2.000000  2.000000  2.000000  2.000000
                       2.000000  2.000000  2.000000  2.000000  2.000000  2.000000
                       2.000000  2.000000  2.000000  2.000000  2.000000  2.000000
                       2.000000  2.000000  2.000000  2.000000  2.000000  2.000000
                       2.000000  2.000000  2.000000  2.000000  2.000000  2.000000
                       2.000000  0.000000  0.000000  0.000000  0.000000  0.000000
                       0.000000
                       2.000000  2.000000  2.000000  2.000000  2.000000  2.000000
                       2.000000  2.000000  2.000000  2.000000  2.000000  2.000000
                       2.000000  2.000000  2.000000  2.000000  2.000000  2.000000
                       2.000000  2.000000  2.000000  2.000000  2.000000  2.000000
                       2.000000  2.000000  2.000000  2.000000  2.000000  2.000000
                       2.000000  0.000000  0.000000  0.000000  0.000000  0.000000
                       0.000000
                       2.000000  2.000000  2.000000  2.000000  2.000000  2.000000
                       2.000000  2.000000  2.000000  2.000000  2.000000  2.000000
                       2.000000  2.000000  2.000000  2.000000  2.000000  2.000000
                       2.000000  2.000000  2.000000  2.000000  2.000000  2.000000
                       2.000000  2.000000  2.000000  2.000000  2.000000  2.000000
                       2.000000  0.000000  0.000000  0.000000  0.000000  0.000000
                       0.000000
                       2.000000  2.000000  2.000000  2.000000  2.000000  2.000000
                       2.000000  2.000000  2.000000  2.000000  2.000000  2.000000
                       2.000000  2.000000  2.000000  2.000000  2.000000  2.000000
                       2.000000  2.000000  2.000000  2.000000  2.000000  2.000000
                       2.000000  2.000000  2.000000  2.000000  2.000000  2.000000
                       2.000000  0.000000  0.000000  0.000000  0.000000  0.000000
                       0.000000
                       2.000000  2.000000  2.000000  2.000000  2.000000  2.000000
                       2.000000  2.000000  2.000000  2.000000  2.000000  2.000000
                       2.000000  2.000000  2.000000  2.000000  2.000000  2.000000
                       2.000000  2.000000  2.000000  2.000000  2.000000  2.000000
                       2.000000  2.000000  2.000000  2.000000  2.000000  2.000000
                       2.000000  0.000000  0.000000  0.000000  0.000000  0.000000
                       0.000000
                       2.000000  2.000000  2.000000  2.000000  2.000000  2.000000
                       2.000000  2.000000  2.000000  2.000000  2.000000  2.000000
                       2.000000  2.000000  2.000000  2.000000  2.000000  2.000000
                       2.000000  2.000000  2.000000  2.000000  2.000000  2.000000
                       2.000000  2.000000  2.000000  2.000000  2.000000  2.000000
                       2.000000  0.000000  0.000000  0.000000  0.000000  0.000000
                       0.000000
                       2.000000  2.000000  2.000000  2.000000  2.000000  2.000000
                       2.000000  2.000000  2.000000  2.000000  2.000000  2.000000
                       2.000000  2.000000  2.000000  2.000000  2.000000  2.000000
                       2.000000  2.000000  2.000000  2.000000  2.000000  2.000000
                       2.000000  2.000000  2.000000  2.000000  2.000000  2.000000
                       2.000000  0.000000  0.000000  0.000000  0.000000  0.000000
                       0.000000
                       2.000000  2.000000  2.000000  2.000000  2.000000  2.000000
                       2.000000  2.000000  2.000000  2.000000  2.000000  2.000000
                       2.000000  2.000000  2.000000  2.000000  2.000000  2.000000
                       2.000000  2.000000  2.000000  2.000000  2.000000  2.000000
                       2.000000  2.000000  2.000000  2.000000  2.000000  2.000000
                       2.000000  0.000000  0.000000  0.000000  0.000000  0.000000
                       0.000000
                       2.000000  2.000000  2.000000  2.000000  2.000000  2.000000
                       2.000000  2.000000  2.000000  2.000000  2.000000  2.000000
                       2.000000  2.000000  2.000000  2.000000  2.000000  2.000000
                       2.000000  2.000000  2.000000  2.000000  2.000000  2.000000
                       2.000000  2.000000  2.000000  2.000000  2.000000  2.000000
                       2.000000  0.000000  0.000000  0.000000  0.000000  0.000000
                       0.000000
                       2.000000  2.000000  2.000000  2.000000  2.000000  2.000000
                       2.000000  2.000000  2.000000  2.000000  2.000000  2.000000
                       2.000000  2.000000  2.000000  2.000000  2.000000  2.000000
                       2.000000  2.000000  2.000000  2.000000  2.000000  2.000000
                       2.000000  2.000000  2.000000  2.000000  2.000000  2.000000
                       2.000000  0.000000  0.000000  0.000000  0.000000  0.000000
                       0.000000
                       2.000000  2.000000  2.000000  2.000000  2.000000  2.000000
                       2.000000  2.000000  2.000000  2.000000  2.000000  2.000000
                       2.000000  2.000000  2.000000  2.000000  2.000000  2.000000
                       2.000000  2.000000  2.000000  2.000000  2.000000  2.000000
                       2.000000  2.000000  2.000000  2.000000  2.000000  2.000000
                       2.000000  0.000000  0.000000  0.000000  0.000000  0.000000
                       0.000000
                       2.000000  2.000000  2.000000  2.000000  2.000000  2.000000
                       2.000000  2.000000  2.000000  2.000000  2.000000  2.000000
                       2.000000  2.000000  2.000000  2.000000  2.000000  2.000000
                       2.000000  2.000000  2.000000  2.000000  2.000000  2.000000
                       2.000000  2.000000  2.000000  2.000000  2.000000  2.000000
                       2.000000  0.000000  0.000000  0.000000  0.000000  0.000000
                       0.000000
                       prtocc : prtvol=0, do not print more k-points.
           occopt           7
        optdriver1          0
        optdriver2          1
        optdriver3          1
          rfatpol1          1       1
          rfatpol2          1       1
          rfatpol3          1      12
            rfdir1          0       0       0
            rfdir2          1       1       1
            rfdir3          1       1       1
           rfelfd1          0
           rfelfd2          2
           rfelfd3          3
           rfphon1          0
           rfphon2          0
           rfphon3          1
            rprim      1.0000000000E+00  0.0000000000E+00  0.0000000000E+00
                      -1.5057997195E-01  1.1565566695E+00  0.0000000000E+00
                      -2.9394572277E-01 -3.0261136205E-01  1.2024061947E+00
           shiftk      5.00000000E-01  5.00000000E-01  5.00000000E-01
          spgroup           2
           symrel      1  0  0   0  1  0   0  0  1      -1  0  0   0 -1  0   0  0 -1
           tolvrs1     1.00000000E-14
           tolvrs2     0.00000000E+00
           tolvrs3     1.00000000E-14
           tolwfr1     0.00000000E+00
           tolwfr2     1.00000000E-18
           tolwfr3     0.00000000E+00
           tsmear      2.00000000E-02 Hartree
            typat      1  1  2  2  3  3  3  3  3  3  3  3
              wtk        0.00952    0.00952    0.00952    0.00952    0.00952    0.00952
                         0.00952    0.00952    0.00952    0.00952    0.00952    0.00952
                         0.00952    0.00952    0.00952    0.00952    0.00952    0.00952
                         0.00952    0.00952    0.00952    0.00952    0.00952    0.00952
                         0.00952    0.00952    0.00952    0.00952    0.00952    0.00952
                         0.00952    0.00952    0.00952    0.00952    0.00952    0.00952
                         0.00952    0.00952    0.00952    0.00952    0.00952    0.00952
                         0.00952    0.00952    0.00952    0.00952    0.00952    0.00952
                         0.00952    0.00952
                       outvars : Printing only first  50 k-points.
           xangst      2.0029547195E+00  3.9549151903E+00  1.3789961415E+00
                       6.5221241353E-01  1.2694330805E-01  4.3685053689E+00
                      -3.1703746724E-01  1.4160659347E+00  1.2489326220E+00
                       2.9722046003E+00  2.6657925636E+00  4.4985688884E+00
                       2.1820726291E+00 -3.8355418610E-01  2.3950845574E+00
                       4.7309450392E-01  4.4654126844E+00  3.3524169530E+00
                       2.8788252670E+00  4.8010099719E+00  5.9003194105E-01
                      -2.2365813391E-01 -7.1915147360E-01  5.1574695694E+00
                       8.3331645804E-01  3.4437836882E+00  6.9429741079E-01
                       1.8218506750E+00  6.3807481012E-01  5.0532040997E+00
                       2.6646775074E+00  2.9512752148E+00  2.1956534325E+00
                      -9.5103743789E-03  1.1305832836E+00  3.5518480779E+00
            xcart      3.7850358764E+00  7.4737065885E+00  2.6059250457E+00
                       1.2325028420E+00  2.3988808661E-01  8.2552787574E+00
                      -5.9911398694E-01  2.6759768027E+00  2.3601406141E+00
                       5.6166527054E+00  5.0376178723E+00  8.5010631890E+00
                       4.1235196711E+00 -7.2481236885E-01  4.5260538787E+00
                       8.9401904738E-01  8.4384070439E+00  6.3351499244E+00
                       5.4401913390E+00  9.0725940082E+00  1.1149987782E+00
                      -4.2265262048E-01 -1.3589993332E+00  9.7462050249E+00
                       1.5747398877E+00  6.5078080316E+00  1.3120319612E+00
                       3.4427988308E+00  1.2057866434E+00  9.5491718419E+00
                       5.0355107215E+00  5.5771018987E+00  4.1491836702E+00
                      -1.7972002997E-02  2.1364927764E+00  6.7120201329E+00
             xred      6.0673077069E-01  7.7816642934E-01  2.3992967014E-01
                       3.9326922931E-01  2.2183357066E-01  7.6007032987E-01
                       4.4680569463E-02  3.1300289542E-01  2.1730009462E-01
                       9.5531943054E-01  6.8699710458E-01  7.8269990538E-01
                       5.8496397409E-01  3.9653908578E-02  4.1671751683E-01
                       4.1503602591E-01  9.6034609142E-01  5.8328248317E-01
                       7.6725456574E-01  8.9529650667E-01  1.0265885794E-01
                       2.3274543426E-01  1.0470349333E-01  8.9734114206E-01
                       3.0840316456E-01  6.5453970651E-01  1.2079986574E-01
                       6.9159683544E-01  3.4546029349E-01  8.7920013426E-01
                       7.6519418837E-01  6.3379931322E-01  3.8201876564E-01
                       2.3480581163E-01  3.6620068678E-01  6.1798123436E-01
            znucl       16.00000   11.00000    8.00000
 
================================================================================
 
 chkinp: Checking input parameters for consistency, jdtset=   1.
 
 chkinp: Checking input parameters for consistency, jdtset=   2.
 
 chkinp: Checking input parameters for consistency, jdtset=   3.
 
================================================================================
== DATASET  1 ==================================================================
-   nproc =   32   -> not optimal: autoparal keyword recommended in input file
 
 Exchange-correlation functional for the present dataset will be:
  GGA: Perdew-Burke-Ernzerhof functional - ixc=11
 Citation for XC functional:
  J.P.Perdew, K.Burke, M.Ernzerhof, PRL 77, 3865 (1996)
 
 Real(R)+Recip(G) space primitive vectors, cartesian coordinates (Bohr,Bohr^-1):
 R(1)=  9.0328908  0.0000000  0.0000000  G(1)=  0.1107065  0.0144136  0.0306913
 R(2)= -1.3601724 10.4470501  0.0000000  G(2)=  0.0000000  0.0957208  0.0240902
 R(3)= -2.6551796 -2.7334554 10.8612038  G(3)=  0.0000000  0.0000000  0.0920708
 Unit cell volume ucvol=  1.0249399E+03 bohr^3
 Angles (23,13,12)=  1.01871000E+02  1.03337000E+02  9.74180000E+01 degrees
 
 getcut: wavevector=  0.0000  0.0000  0.0000  ngfft=  54  60  72
         ecut(hartree)=     40.000   => boxcut(ratio)=   2.00056
 
--- Pseudopotential description ------------------------------------------------
- pspini: atom type   1  psp file is /home/software/PseudoPotentials/AbInit/16s.pspnc
- pspatm: opening atomic psp file    /home/software/PseudoPotentials/AbInit/16s.pspnc
-  Troullier-Martins psp for element  S         Thu Oct 27 17:31:52 EDT 1994
- 16.00000   6.00000    940714                znucl, zion, pspdat
    1    1    2    2      2001   0.00000      pspcod,pspxc,lmax,lloc,mmax,r2well
    0   8.873  21.501    1   1.7591368        l,e99.0,e99.9,nproj,rcpsp
   0.00000000   0.00000000   0.00000000   0.00000000     rms, ekb1, ekb2, epsatm
    1   4.476   7.312    1   1.7591368        l,e99.0,e99.9,nproj,rcpsp
   0.00000000   0.00000000   0.00000000   0.00000000     rms, ekb1, ekb2, epsatm
    2   0.000   0.000    0   1.7591368        l,e99.0,e99.9,nproj,rcpsp
   0.00000000   0.00000000   0.00000000   0.00000000     rms, ekb1, ekb2, epsatm
    1.37741381030740    0.71675323766344    1.63459417149422   rchrg,fchrg,qchrg
 pspatm: epsatm=    2.50416601
         --- l  ekb(1:nproj) -->
             0    5.201824
             1    3.062658
 pspatm: atomic psp has been read  and splines computed
 
- pspini: atom type   2  psp file is /home/software/PseudoPotentials/AbInit/11na.pspnc
- pspatm: opening atomic psp file    /home/software/PseudoPotentials/AbInit/11na.pspnc
-  Troullier-Martins psp for element  Na        Mon Oct 31 11:14:49 EST 1994
- 11.00000   1.00000    940714                znucl, zion, pspdat
    1    1    2    2      2001   0.00000      pspcod,pspxc,lmax,lloc,mmax,r2well
    0   2.613   6.900    1   2.9359409        l,e99.0,e99.9,nproj,rcpsp
   0.00000000   0.00000000   0.00000000   0.00000000     rms, ekb1, ekb2, epsatm
    1   0.769   1.167    1   3.1646217        l,e99.0,e99.9,nproj,rcpsp
   0.00000000   0.00000000   0.00000000   0.00000000     rms, ekb1, ekb2, epsatm
    2   0.991   2.977    0   2.9359409        l,e99.0,e99.9,nproj,rcpsp
   0.00000000   0.00000000   0.00000000   0.00000000     rms, ekb1, ekb2, epsatm
    2.09488187080490    1.31996662950249   10.58981932283911   rchrg,fchrg,qchrg
 pspatm: epsatm=   10.64390676
         --- l  ekb(1:nproj) -->
             0    1.300581
             1    0.590411
 pspatm: atomic psp has been read  and splines computed
 
- pspini: atom type   3  psp file is /home/software/PseudoPotentials/AbInit/8o.pspnc
- pspatm: opening atomic psp file    /home/software/PseudoPotentials/AbInit/8o.pspnc
-  Troullier-Martins psp for element  O         Thu Oct 27 17:29:57 EDT 1994
-  8.00000   6.00000    940714                znucl, zion, pspdat
    1    1    1    1      2001   0.00000      pspcod,pspxc,lmax,lloc,mmax,r2well
    0   5.480  16.893    1   1.4482335        l,e99.0,e99.9,nproj,rcpsp
   0.00000000   0.00000000   0.00000000   0.00000000     rms, ekb1, ekb2, epsatm
    1  20.911  28.075    0   1.4482335        l,e99.0,e99.9,nproj,rcpsp
   0.00000000   0.00000000   0.00000000   0.00000000     rms, ekb1, ekb2, epsatm
    0.56990156784787    3.95561236318184    0.63894027514378   rchrg,fchrg,qchrg
 pspatm: epsatm=    1.57752239
         --- l  ekb(1:nproj) -->
             0    5.670783
 pspatm: atomic psp has been read  and splines computed
 
   2.41281213E+03                                ecore*ucvol(ha*bohr**3)
--------------------------------------------------------------------------------
 
P newkpt: treating     37 bands with npw=   12378 for ikpt=   1 by node    0
P newkpt: treating     37 bands with npw=   12386 for ikpt=   2 by node    0
P newkpt: treating     37 bands with npw=   12374 for ikpt=   3 by node    0
P newkpt: treating     37 bands with npw=   12383 for ikpt=   4 by node    0
P newkpt: treating     37 bands with npw=   12386 for ikpt=   5 by node    1
P newkpt: treating     37 bands with npw=   12384 for ikpt=   6 by node    1
P newkpt: treating     37 bands with npw=   12367 for ikpt=   7 by node    1
P newkpt: treating     37 bands with npw=   12386 for ikpt=   8 by node    1
P newkpt: treating     37 bands with npw=   12386 for ikpt=   9 by node    2
P newkpt: treating     37 bands with npw=   12395 for ikpt=  10 by node    2
P newkpt: treating     37 bands with npw=   12414 for ikpt=  11 by node    2
P newkpt: treating     37 bands with npw=   12421 for ikpt=  12 by node    2
P newkpt: treating     37 bands with npw=   12400 for ikpt=  13 by node    3
P newkpt: treating     37 bands with npw=   12398 for ikpt=  14 by node    3
P newkpt: treating     37 bands with npw=   12372 for ikpt=  15 by node    3
P newkpt: treating     37 bands with npw=   12390 for ikpt=  16 by node    3
P newkpt: treating     37 bands with npw=   12395 for ikpt=  17 by node    4
P newkpt: treating     37 bands with npw=   12391 for ikpt=  18 by node    4
P newkpt: treating     37 bands with npw=   12430 for ikpt=  19 by node    4
P newkpt: treating     37 bands with npw=   12405 for ikpt=  20 by node    4
P newkpt: treating     37 bands with npw=   12395 for ikpt=  21 by node    5
P newkpt: treating     37 bands with npw=   12378 for ikpt=  22 by node    5
P newkpt: treating     37 bands with npw=   12387 for ikpt=  23 by node    5
P newkpt: treating     37 bands with npw=   12402 for ikpt=  24 by node    5
P newkpt: treating     37 bands with npw=   12405 for ikpt=  25 by node    6
P newkpt: treating     37 bands with npw=   12410 for ikpt=  26 by node    6
P newkpt: treating     37 bands with npw=   12396 for ikpt=  27 by node    6
P newkpt: treating     37 bands with npw=   12385 for ikpt=  28 by node    6
P newkpt: treating     37 bands with npw=   12388 for ikpt=  29 by node    7
P newkpt: treating     37 bands with npw=   12396 for ikpt=  30 by node    7
P newkpt: treating     37 bands with npw=   12392 for ikpt=  31 by node    7
P newkpt: treating     37 bands with npw=   12403 for ikpt=  32 by node    7
P newkpt: treating     37 bands with npw=   12380 for ikpt=  33 by node    8
P newkpt: treating     37 bands with npw=   12370 for ikpt=  34 by node    8
P newkpt: treating     37 bands with npw=   12385 for ikpt=  35 by node    8
P newkpt: treating     37 bands with npw=   12370 for ikpt=  36 by node    8
P newkpt: treating     37 bands with npw=   12385 for ikpt=  37 by node    9
P newkpt: treating     37 bands with npw=   12384 for ikpt=  38 by node    9
P newkpt: treating     37 bands with npw=   12398 for ikpt=  39 by node    9
P newkpt: treating     37 bands with npw=   12375 for ikpt=  40 by node    9
P newkpt: treating     37 bands with npw=   12373 for ikpt=  41 by node   10
P newkpt: treating     37 bands with npw=   12363 for ikpt=  42 by node   10
P newkpt: treating     37 bands with npw=   12364 for ikpt=  43 by node   10
P newkpt: treating     37 bands with npw=   12387 for ikpt=  44 by node   10
P newkpt: treating     37 bands with npw=   12369 for ikpt=  45 by node   11
P newkpt: treating     37 bands with npw=   12383 for ikpt=  46 by node   11
P newkpt: treating     37 bands with npw=   12410 for ikpt=  47 by node   11
P newkpt: treating     37 bands with npw=   12389 for ikpt=  48 by node   11
P newkpt: treating     37 bands with npw=   12351 for ikpt=  49 by node   12
P newkpt: treating     37 bands with npw=   12392 for ikpt=  50 by node   12
 newkpt: prtvol=0 or 1, do not print more k-points.
 
_setup2: Arith. and geom. avg. npw (full set) are   12385.229   12385.221
 
================================================================================
 
     iter   Etot(hartree)      deltaE(h)  residm     vres2
 ETOT  1  -168.91527489472    -1.689E+02 1.086E-01 2.422E+03
 ETOT  2  -168.71419396026     2.011E-01 1.528E-02 4.309E+03
 ETOT  3  -169.34687687746    -6.327E-01 1.273E-02 3.012E+02
 ETOT  4  -169.35142134019    -4.544E-03 2.271E-03 2.138E+02
 ETOT  5  -169.35773954923    -6.318E-03 1.712E-03 2.732E+01
 ETOT  6  -169.35914484049    -1.405E-03 1.273E-03 1.579E+01
 ETOT  7  -169.35947872876    -3.339E-04 8.823E-04 4.229E+00
 ETOT  8  -169.35962314261    -1.444E-04 6.739E-04 4.530E-01
 ETOT  9  -169.35968161367    -5.847E-05 3.696E-04 4.434E-01
 ETOT 10  -169.35969169690    -1.008E-05 3.551E-04 1.188E-01
 ETOT 11  -169.35969566127    -3.964E-06 2.302E-04 1.121E-02
 ETOT 12  -169.35969627408    -6.128E-07 2.259E-04 7.427E-03
 ETOT 13  -169.35969648311    -2.090E-07 2.004E-04 1.392E-03
 ETOT 14  -169.35969651999    -3.688E-08 2.213E-04 4.600E-04
 ETOT 15  -169.35969653402    -1.403E-08 1.361E-04 1.692E-04
 ETOT 16  -169.35969653997    -5.946E-09 1.684E-04 4.750E-05
 ETOT 17  -169.35969654133    -1.355E-09 8.171E-05 3.290E-06
 ETOT 18  -169.35969654134    -1.094E-11 1.051E-04 2.604E-06
 ETOT 19  -169.35969654138    -4.741E-11 4.590E-05 9.390E-07
 ETOT 20  -169.35969654144    -5.710E-11 5.781E-05 4.873E-08
 ETOT 21  -169.35969654144    -7.390E-13 2.380E-05 1.745E-08
 ETOT 22  -169.35969654144     2.558E-13 2.967E-05 1.959E-08
 ETOT 23  -169.35969654144    -3.979E-13 1.185E-05 4.373E-09
 ETOT 24  -169.35969654144    -1.222E-12 1.469E-05 3.420E-10
 ETOT 25  -169.35969654144     1.535E-12 8.684E-06 2.717E-10
 ETOT 26  -169.35969654144    -1.421E-12 9.924E-06 4.578E-11
 ETOT 27  -169.35969654144     1.535E-12 6.602E-06 1.375E-11
 ETOT 28  -169.35969654144    -2.842E-14 9.772E-06 5.915E-12
 ETOT 29  -169.35969654144    -7.390E-13 5.837E-06 3.115E-13
 ETOT 30  -169.35969654144     1.194E-12 9.513E-06 2.696E-13
 ETOT 31  -169.35969654144    -1.222E-12 5.621E-06 5.685E-14
 ETOT 32  -169.35969654144     8.527E-13 9.158E-06 5.981E-15
 
 At SCF step   32       vres2   =  5.98E-15 < tolvrs=  1.00E-14 =>converged.
 
 Cartesian components of stress tensor (hartree/bohr^3)
  sigma(1 1)= -1.60255168E-04  sigma(3 2)=  5.28989512E-06
  sigma(2 2)= -1.67861582E-04  sigma(3 1)= -1.63123198E-05
  sigma(3 3)= -2.16302286E-04  sigma(2 1)= -2.42507378E-05
 
================================================================================
 
 ----iterations are completed or convergence reached----
 
 Mean square residual over all n,k,spin=   5.4228E-09; max=  9.1583E-06
   0.0714  0.0833  0.1000    1  1.27495E-10 kpt; spin; max resid(k); each band:
  1.58E-20 1.95E-20 9.90E-21 2.01E-20 1.78E-20 1.39E-20 1.44E-20 1.10E-20
  1.89E-20 2.02E-20 1.10E-20 2.16E-20 2.00E-20 1.97E-20 2.01E-20 1.78E-20
  1.02E-20 1.84E-20 1.11E-20 1.52E-20 9.99E-21 1.53E-20 1.79E-20 1.36E-20
  1.70E-20 1.30E-20 1.23E-20 1.47E-20 1.35E-20 1.42E-20 1.60E-20 1.03E-20
  2.12E-20 1.97E-20 2.04E-20 8.73E-18 1.27E-10
   0.2143  0.0833  0.1000    1  7.18020E-08 kpt; spin; max resid(k); each band:
  1.57E-20 1.94E-20 9.81E-21 1.70E-20 1.91E-20 1.36E-20 1.45E-20 1.09E-20
  1.85E-20 2.03E-20 1.14E-20 2.19E-20 1.98E-20 1.95E-20 1.89E-20 1.98E-20
  9.92E-21 1.67E-20 1.19E-20 1.45E-20 1.34E-20 1.07E-20 1.93E-20 1.02E-20
  1.67E-20 1.28E-20 1.16E-20 1.51E-20 1.11E-20 1.87E-20 1.72E-20 1.02E-20
  2.78E-20 2.05E-20 2.52E-20 3.79E-19 7.18E-08
   0.3571  0.0833  0.1000    1  2.45068E-06 kpt; spin; max resid(k); each band:
  1.58E-20 1.94E-20 9.67E-21 1.51E-20 1.87E-20 1.42E-20 1.39E-20 1.08E-20
  1.81E-20 2.01E-20 1.28E-20 2.28E-20 1.78E-20 1.63E-20 1.74E-20 2.08E-20
  9.88E-21 1.56E-20 1.31E-20 1.48E-20 1.60E-20 1.38E-20 1.51E-20 1.46E-20
  1.13E-20 1.46E-20 1.05E-20 1.57E-20 1.49E-20 2.95E-20 2.53E-20 1.03E-20
  3.49E-20 1.88E-20 3.27E-20 5.36E-20 2.45E-06
   0.5000  0.0833  0.1000    1  1.98070E-08 kpt; spin; max resid(k); each band:
  1.57E-20 1.94E-20 9.64E-21 1.47E-20 1.85E-20 1.44E-20 1.37E-20 1.08E-20
  1.79E-20 2.02E-20 1.31E-20 2.37E-20 1.65E-20 1.51E-20 1.85E-20 2.15E-20
  9.99E-21 1.57E-20 1.19E-20 1.58E-20 1.77E-20 1.13E-20 1.61E-20 1.58E-20
  1.01E-20 1.43E-20 1.02E-20 1.65E-20 2.10E-20 3.10E-20 1.74E-20 1.00E-20
  4.60E-20 3.48E-20 3.65E-20 5.35E-20 1.98E-08
  -0.3571  0.0833  0.1000    1  3.93217E-10 kpt; spin; max resid(k); each band:
  1.56E-20 1.92E-20 9.66E-21 1.61E-20 1.87E-20 1.38E-20 1.40E-20 1.07E-20
  1.82E-20 2.02E-20 1.25E-20 2.31E-20 1.80E-20 1.94E-20 1.96E-20 2.16E-20
  1.01E-20 1.69E-20 1.17E-20 1.33E-20 1.61E-20 1.58E-20 1.50E-20 1.59E-20
  1.29E-20 1.25E-20 1.13E-20 1.64E-20 1.04E-20 1.48E-20 1.94E-20 9.95E-21
  4.15E-20 2.01E-20 1.96E-20 2.86E-19 3.93E-10
  -0.2143  0.0833  0.1000    1  4.46166E-13 kpt; spin; max resid(k); each band:
  1.57E-20 1.93E-20 9.80E-21 1.86E-20 1.79E-20 1.36E-20 1.42E-20 1.08E-20
  1.87E-20 1.98E-20 1.25E-20 2.25E-20 1.89E-20 1.90E-20 2.01E-20 2.07E-20
  1.06E-20 1.85E-20 1.24E-20 1.34E-20 1.07E-20 1.78E-20 1.62E-20 1.53E-20
  1.53E-20 1.33E-20 1.24E-20 1.57E-20 1.36E-20 1.41E-20 1.58E-20 1.02E-20
  2.35E-20 2.63E-20 1.88E-20 7.04E-18 4.46E-13
  -0.0714  0.0833  0.1000    1  2.12124E-14 kpt; spin; max resid(k); each band:
  1.58E-20 1.95E-20 9.85E-21 1.98E-20 1.83E-20 1.43E-20 1.37E-20 1.10E-20
  1.90E-20 1.99E-20 1.17E-20 2.19E-20 1.91E-20 2.02E-20 1.66E-20 1.83E-20
  1.06E-20 1.88E-20 1.15E-20 1.53E-20 9.16E-21 1.63E-20 1.70E-20 1.71E-20
  1.59E-20 1.35E-20 1.27E-20 1.49E-20 1.33E-20 1.44E-20 1.58E-20 1.02E-20
  1.97E-20 2.22E-20 1.91E-20 2.15E-18 2.12E-14
   0.0714  0.2500  0.1000    1  5.28911E-11 kpt; spin; max resid(k); each band:
  1.59E-20 1.95E-20 9.98E-21 2.01E-20 1.75E-20 1.42E-20 1.41E-20 1.13E-20
  1.88E-20 2.04E-20 1.11E-20 2.08E-20 2.00E-20 1.93E-20 1.94E-20 1.83E-20
  1.29E-20 1.64E-20 1.76E-20 1.20E-20 1.21E-20 9.08E-21 1.86E-20 1.53E-20
  1.64E-20 1.56E-20 1.21E-20 1.40E-20 1.56E-20 1.46E-20 1.68E-20 1.09E-20
  2.58E-20 2.08E-20 3.28E-20 2.65E-19 5.29E-11
   0.2143  0.2500  0.1000    1  3.11186E-08 kpt; spin; max resid(k); each band:
  1.58E-20 1.95E-20 1.00E-20 1.83E-20 1.79E-20 1.42E-20 1.44E-20 1.12E-20
  1.86E-20 2.03E-20 1.12E-20 2.18E-20 1.82E-20 1.92E-20 1.85E-20 1.98E-20
  9.71E-21 1.57E-20 1.76E-20 1.25E-20 1.17E-20 1.02E-20 1.76E-20 1.15E-20
  1.27E-20 1.69E-20 1.10E-20 1.35E-20 1.13E-20 2.19E-20 1.78E-20 1.08E-20
  2.93E-20 3.33E-20 3.80E-20 9.41E-20 3.11E-08
   0.3571  0.2500  0.1000    1  2.23987E-08 kpt; spin; max resid(k); each band:
  1.56E-20 1.94E-20 9.97E-21 1.53E-20 1.87E-20 1.46E-20 1.40E-20 1.10E-20
  1.84E-20 1.97E-20 1.24E-20 2.28E-20 1.73E-20 1.55E-20 1.96E-20 2.02E-20
  9.39E-21 1.57E-20 1.75E-20 1.33E-20 1.34E-20 1.02E-20 1.54E-20 1.21E-20
  1.55E-20 1.50E-20 9.76E-21 1.40E-20 1.64E-20 3.14E-20 2.34E-20 1.07E-20
  2.93E-20 2.17E-20 4.94E-20 1.00E-19 2.24E-08
   0.5000  0.2500  0.1000    1  9.52680E-12 kpt; spin; max resid(k); each band:
  1.56E-20 1.93E-20 9.88E-21 1.54E-20 1.84E-20 1.45E-20 1.37E-20 1.09E-20
  1.82E-20 1.97E-20 1.26E-20 2.35E-20 1.72E-20 1.60E-20 2.12E-20 2.14E-20
  9.81E-21 1.58E-20 1.67E-20 1.48E-20 1.18E-20 9.51E-21 1.61E-20 1.34E-20
  1.51E-20 1.42E-20 9.61E-21 1.47E-20 2.38E-20 3.03E-20 1.30E-20 1.00E-20
  3.30E-20 4.37E-20 3.65E-20 3.89E-20 9.53E-12
  -0.3571  0.2500  0.1000    1  2.19275E-10 kpt; spin; max resid(k); each band:
  1.57E-20 1.91E-20 9.83E-21 1.78E-20 1.73E-20 1.42E-20 1.36E-20 1.09E-20
  1.84E-20 1.99E-20 1.26E-20 2.25E-20 1.79E-20 1.76E-20 1.98E-20 2.21E-20
  1.17E-20 1.58E-20 1.68E-20 1.39E-20 1.42E-20 9.33E-21 1.57E-20 1.46E-20
  1.47E-20 1.38E-20 1.11E-20 1.51E-20 1.03E-20 2.43E-20 2.36E-20 9.97E-21
  5.76E-20 2.36E-20 1.70E-20 4.92E-18 2.19E-10
  -0.2143  0.2500  0.1000    1  3.31636E-07 kpt; spin; max resid(k); each band:
  1.58E-20 1.91E-20 9.95E-21 1.87E-20 1.76E-20 1.43E-20 1.35E-20 1.11E-20
  1.87E-20 1.97E-20 1.34E-20 2.09E-20 1.89E-20 1.78E-20 1.83E-20 2.13E-20
  1.51E-20 1.60E-20 1.68E-20 1.19E-20 1.23E-20 1.29E-20 1.56E-20 1.75E-20
  1.48E-20 1.47E-20 1.25E-20 1.51E-20 1.69E-20 1.34E-20 1.68E-20 1.10E-20
  2.68E-20 2.18E-20 1.83E-20 4.96E-16 3.32E-07
  -0.0714  0.2500  0.1000    1  1.63769E-11 kpt; spin; max resid(k); each band:
  1.59E-20 1.94E-20 1.00E-20 1.94E-20 1.82E-20 1.43E-20 1.37E-20 1.13E-20
  1.89E-20 2.00E-20 1.25E-20 2.03E-20 1.96E-20 1.85E-20 1.66E-20 1.90E-20
  1.62E-20 1.60E-20 1.69E-20 1.17E-20 1.28E-20 1.03E-20 1.61E-20 1.85E-20
  1.59E-20 1.53E-20 1.28E-20 1.45E-20 1.59E-20 1.40E-20 1.68E-20 1.10E-20
  2.26E-20 1.98E-20 2.49E-20 4.33E-18 1.64E-11
   0.0714  0.4167  0.1000    1  1.14812E-11 kpt; spin; max resid(k); each band:
  1.60E-20 1.95E-20 9.86E-21 2.03E-20 1.75E-20 1.42E-20 1.40E-20 1.15E-20
  1.87E-20 2.03E-20 1.15E-20 1.96E-20 1.97E-20 1.67E-20 2.02E-20 1.72E-20
  1.78E-20 1.20E-20 1.78E-20 1.15E-20 1.19E-20 8.92E-21 1.79E-20 1.71E-20
  1.25E-20 1.64E-20 1.08E-20 1.25E-20 1.82E-20 1.40E-20 1.75E-20 1.12E-20
  4.27E-20 3.75E-20 6.65E-20 2.40E-20 1.15E-11
   0.2143  0.4167  0.1000    1  1.81802E-08 kpt; spin; max resid(k); each band:
  1.60E-20 1.94E-20 9.92E-21 1.96E-20 1.71E-20 1.42E-20 1.41E-20 1.13E-20
  1.87E-20 1.98E-20 1.17E-20 2.09E-20 1.81E-20 1.94E-20 1.92E-20 1.80E-20
  1.28E-20 1.66E-20 1.67E-20 1.27E-20 1.29E-20 9.62E-21 1.59E-20 1.32E-20
  1.27E-20 1.59E-20 9.66E-21 1.28E-20 1.18E-20 2.21E-20 1.80E-20 1.11E-20
  3.47E-20 5.36E-20 3.30E-20 3.29E-20 1.82E-08
   0.3571  0.4167  0.1000    1  7.55106E-08 kpt; spin; max resid(k); each band:
  1.58E-20 1.94E-20 1.01E-20 1.62E-20 1.82E-20 1.44E-20 1.39E-20 1.11E-20
  1.85E-20 1.93E-20 1.21E-20 2.25E-20 1.65E-20 1.94E-20 2.19E-20 1.90E-20
  9.20E-21 1.65E-20 1.61E-20 1.48E-20 1.25E-20 9.28E-21 1.43E-20 1.22E-20
  1.31E-20 1.48E-20 7.85E-21 1.28E-20 1.37E-20 3.23E-20 2.15E-20 1.08E-20
  2.00E-20 1.94E-20 4.82E-20 1.39E-19 7.55E-08
   0.5000  0.4167  0.1000    1  2.86129E-11 kpt; spin; max resid(k); each band:
  1.56E-20 1.94E-20 1.01E-20 1.74E-20 1.68E-20 1.44E-20 1.37E-20 1.10E-20
  1.83E-20 1.96E-20 1.25E-20 2.30E-20 1.71E-20 1.89E-20 2.05E-20 2.04E-20
  8.72E-21 1.63E-20 1.56E-20 1.55E-20 1.01E-20 1.00E-20 1.47E-20 1.28E-20
  1.23E-20 1.40E-20 7.06E-21 1.28E-20 2.37E-20 2.36E-20 1.40E-20 9.98E-21
  1.60E-20 2.92E-20 6.63E-20 6.90E-20 2.86E-11
  -0.3571  0.4167  0.1000    1  2.91000E-07 kpt; spin; max resid(k); each band:
  1.57E-20 1.92E-20 9.96E-21 1.88E-20 1.70E-20 1.43E-20 1.35E-20 1.11E-20
  1.82E-20 2.04E-20 1.31E-20 2.18E-20 1.84E-20 1.93E-20 1.72E-20 2.14E-20
  1.12E-20 1.59E-20 1.58E-20 1.54E-20 1.11E-20 1.01E-20 1.39E-20 1.34E-20
  1.13E-20 1.48E-20 9.14E-21 1.28E-20 1.15E-20 3.24E-20 2.09E-20 9.58E-21
  1.66E-20 7.16E-20 1.85E-20 2.03E-17 2.91E-07
  -0.2143  0.4167  0.1000    1  8.41661E-09 kpt; spin; max resid(k); each band:
  1.59E-20 1.95E-20 9.91E-21 1.80E-20 1.80E-20 1.41E-20 1.38E-20 1.13E-20
  1.84E-20 2.03E-20 1.38E-20 1.95E-20 1.95E-20 1.69E-20 1.66E-20 2.07E-20
  1.67E-20 1.54E-20 1.63E-20 1.30E-20 1.18E-20 9.57E-21 1.59E-20 1.63E-20
  1.14E-20 1.56E-20 1.09E-20 1.32E-20 1.88E-20 1.64E-20 1.83E-20 1.12E-20
  2.83E-20 2.90E-20 3.17E-20 8.00E-20 8.42E-09
  -0.0714  0.4167  0.1000    1  1.85502E-10 kpt; spin; max resid(k); each band:
  1.60E-20 1.96E-20 9.93E-21 1.94E-20 1.83E-20 1.42E-20 1.39E-20 1.15E-20
  1.86E-20 2.05E-20 1.26E-20 1.89E-20 1.96E-20 1.70E-20 1.65E-20 1.98E-20
  1.87E-20 1.05E-20 1.77E-20 1.16E-20 1.14E-20 8.83E-21 1.54E-20 1.86E-20
  1.20E-20 1.63E-20 1.12E-20 1.27E-20 1.91E-20 1.32E-20 1.76E-20 1.12E-20
  3.35E-20 2.07E-20 8.80E-20 5.07E-20 1.86E-10
   0.0714 -0.4167  0.1000    1  3.80921E-15 kpt; spin; max resid(k); each band:
  1.61E-20 1.93E-20 9.80E-21 2.02E-20 1.79E-20 1.40E-20 1.40E-20 1.14E-20
  1.87E-20 2.02E-20 1.17E-20 1.93E-20 1.94E-20 1.94E-20 1.79E-20 1.74E-20
  1.65E-20 1.68E-20 1.72E-20 1.04E-20 1.52E-20 8.88E-21 1.79E-20 1.77E-20
  1.49E-20 1.51E-20 1.09E-20 1.42E-20 1.20E-20 1.86E-20 1.69E-20 1.10E-20
  3.69E-20 1.83E-20 4.18E-20 5.92E-20 3.81E-15
   0.2143 -0.4167  0.1000    1  2.53316E-12 kpt; spin; max resid(k); each band:
  1.61E-20 1.91E-20 9.80E-21 1.96E-20 1.73E-20 1.40E-20 1.38E-20 1.12E-20
  1.87E-20 1.95E-20 1.22E-20 2.05E-20 1.89E-20 2.07E-20 1.76E-20 1.90E-20
  1.41E-20 1.66E-20 1.74E-20 1.24E-20 1.48E-20 9.07E-21 1.58E-20 1.48E-20
  1.42E-20 1.49E-20 1.02E-20 1.49E-20 1.12E-20 1.83E-20 1.67E-20 1.10E-20
  4.42E-20 2.00E-20 1.92E-20 1.88E-19 2.53E-12
   0.3571 -0.4167  0.1000    1  2.16878E-07 kpt; spin; max resid(k); each band:
  1.60E-20 1.91E-20 9.87E-21 1.78E-20 1.76E-20 1.38E-20 1.38E-20 1.10E-20
  1.84E-20 1.96E-20 1.26E-20 2.23E-20 1.64E-20 1.74E-20 2.18E-20 2.02E-20
  1.11E-20 1.67E-20 1.79E-20 1.58E-20 1.11E-20 9.73E-21 1.54E-20 1.19E-20
  1.42E-20 1.42E-20 8.61E-21 1.50E-20 1.25E-20 2.08E-20 3.07E-20 1.04E-20
  3.90E-20 3.11E-20 1.85E-20 2.44E-18 2.17E-07
   0.5000 -0.4167  0.1000    1  9.52542E-09 kpt; spin; max resid(k); each band:
  1.57E-20 1.95E-20 1.00E-20 1.70E-20 1.71E-20 1.45E-20 1.37E-20 1.09E-20
  1.81E-20 2.01E-20 1.32E-20 2.27E-20 1.91E-20 1.79E-20 1.92E-20 2.11E-20
  9.79E-21 1.59E-20 1.63E-20 1.52E-20 1.01E-20 1.03E-20 1.48E-20 1.08E-20
  1.48E-20 1.33E-20 8.32E-21 1.45E-20 2.31E-20 2.23E-20 1.76E-20 1.00E-20
  1.90E-20 3.20E-20 8.27E-20 1.48E-19 9.53E-09
  -0.3571 -0.4167  0.1000    1  8.43302E-07 kpt; spin; max resid(k); each band:
  1.56E-20 1.96E-20 9.90E-21 1.77E-20 1.78E-20 1.44E-20 1.37E-20 1.10E-20
  1.79E-20 2.09E-20 1.33E-20 2.17E-20 1.97E-20 1.76E-20 1.71E-20 2.11E-20
  9.82E-21 1.57E-20 1.66E-20 1.38E-20 1.08E-20 1.13E-20 1.38E-20 1.05E-20
  1.66E-20 1.32E-20 1.03E-20 1.36E-20 1.28E-20 3.17E-20 1.95E-20 9.71E-21
  2.60E-20 3.65E-20 5.54E-20 6.39E-19 8.43E-07
  -0.2143 -0.4167  0.1000    1  3.12631E-09 kpt; spin; max resid(k); each band:
  1.59E-20 1.98E-20 9.80E-21 1.79E-20 1.85E-20 1.40E-20 1.41E-20 1.12E-20
  1.81E-20 2.11E-20 1.21E-20 2.08E-20 2.04E-20 1.88E-20 1.75E-20 2.09E-20
  1.09E-20 1.66E-20 1.73E-20 1.14E-20 1.17E-20 1.00E-20 1.76E-20 1.05E-20
  1.68E-20 1.43E-20 1.11E-20 1.34E-20 1.20E-20 2.30E-20 1.81E-20 1.07E-20
  3.04E-20 3.53E-20 8.08E-20 3.02E-20 3.13E-09
  -0.0714 -0.4167  0.1000    1  2.18968E-12 kpt; spin; max resid(k); each band:
  1.61E-20 1.96E-20 9.82E-21 1.95E-20 1.86E-20 1.40E-20 1.42E-20 1.14E-20
  1.85E-20 2.09E-20 1.13E-20 1.98E-20 1.90E-20 1.81E-20 1.75E-20 2.07E-20
  1.54E-20 1.74E-20 1.77E-20 1.01E-20 1.36E-20 8.85E-21 1.88E-20 1.60E-20
  1.62E-20 1.48E-20 1.11E-20 1.36E-20 1.16E-20 2.00E-20 1.71E-20 1.09E-20
  3.79E-20 2.19E-20 8.28E-20 3.17E-20 2.19E-12
   0.0714 -0.2500  0.1000    1  1.70026E-14 kpt; spin; max resid(k); each band:
  1.61E-20 1.93E-20 9.78E-21 1.99E-20 1.84E-20 1.37E-20 1.43E-20 1.11E-20
  1.88E-20 2.00E-20 1.16E-20 2.05E-20 1.92E-20 2.11E-20 1.90E-20 1.76E-20
  1.25E-20 1.88E-20 1.34E-20 1.51E-20 9.47E-21 1.65E-20 1.74E-20 1.61E-20
  1.53E-20 1.38E-20 1.17E-20 1.49E-20 1.17E-20 1.57E-20 1.61E-20 1.05E-20
  2.47E-20 1.83E-20 1.82E-20 6.64E-19 1.70E-14
   0.2143 -0.2500  0.1000    1  3.69946E-12 kpt; spin; max resid(k); each band:
  1.61E-20 1.91E-20 9.68E-21 1.87E-20 1.80E-20 1.38E-20 1.39E-20 1.10E-20
  1.86E-20 1.97E-20 1.22E-20 2.08E-20 1.98E-20 2.03E-20 1.88E-20 1.94E-20
  1.21E-20 1.76E-20 1.49E-20 1.56E-20 1.07E-20 1.37E-20 1.72E-20 1.40E-20
  1.45E-20 1.33E-20 1.30E-20 1.57E-20 1.27E-20 1.22E-20 1.63E-20 1.05E-20
  3.17E-20 1.49E-20 1.92E-20 4.87E-19 3.70E-12
   0.3571 -0.2500  0.1000    1  1.19801E-07 kpt; spin; max resid(k); each band:
  1.59E-20 1.90E-20 9.63E-21 1.63E-20 1.87E-20 1.40E-20 1.38E-20 1.08E-20
  1.82E-20 2.01E-20 1.27E-20 2.21E-20 1.74E-20 1.72E-20 2.13E-20 2.09E-20
  1.10E-20 1.60E-20 1.76E-20 1.33E-20 1.12E-20 1.15E-20 1.72E-20 1.47E-20
  1.09E-20 1.16E-20 1.32E-20 1.60E-20 1.20E-20 2.48E-20 2.90E-20 1.02E-20
  5.22E-20 1.61E-20 1.91E-20 5.00E-19 1.20E-07
   0.5000 -0.2500  0.1000    1  3.12780E-08 kpt; spin; max resid(k); each band:
  1.57E-20 1.95E-20 9.74E-21 1.57E-20 1.78E-20 1.46E-20 1.37E-20 1.07E-20
  1.78E-20 2.05E-20 1.32E-20 2.33E-20 2.04E-20 1.79E-20 1.90E-20 2.18E-20
  1.05E-20 1.63E-20 1.43E-20 1.54E-20 1.27E-20 1.17E-20 1.67E-20 1.53E-20
  9.56E-21 1.28E-20 1.08E-20 1.61E-20 2.24E-20 2.93E-20 1.98E-20 9.99E-21
  3.93E-20 2.91E-20 5.73E-20 4.88E-20 3.13E-08
  -0.3571 -0.2500  0.1000    1  8.23786E-08 kpt; spin; max resid(k); each band:
  1.55E-20 1.97E-20 9.71E-21 1.65E-20 1.82E-20 1.44E-20 1.39E-20 1.08E-20
  1.78E-20 2.10E-20 1.25E-20 2.30E-20 2.07E-20 1.83E-20 1.69E-20 2.25E-20
  1.06E-20 1.71E-20 1.23E-20 1.58E-20 1.34E-20 1.33E-20 1.68E-20 1.53E-20
  1.16E-20 1.22E-20 1.18E-20 1.51E-20 1.13E-20 3.05E-20 2.09E-20 9.83E-21
  3.40E-20 2.10E-20 3.81E-20 8.37E-20 8.24E-08
  -0.2143 -0.2500  0.1000    1  2.58579E-09 kpt; spin; max resid(k); each band:
  1.58E-20 1.97E-20 9.75E-21 1.78E-20 1.88E-20 1.40E-20 1.41E-20 1.09E-20
  1.82E-20 2.11E-20 1.14E-20 2.25E-20 2.02E-20 1.90E-20 1.82E-20 2.23E-20
  1.08E-20 1.83E-20 1.15E-20 1.59E-20 1.34E-20 1.11E-20 2.00E-20 1.32E-20
  1.67E-20 1.20E-20 1.24E-20 1.42E-20 1.17E-20 1.98E-20 1.70E-20 1.02E-20
  2.68E-20 2.09E-20 3.67E-20 1.16E-19 2.59E-09
  -0.0714 -0.2500  0.1000    1  7.70745E-13 kpt; spin; max resid(k); each band:
  1.60E-20 1.95E-20 9.77E-21 1.95E-20 1.89E-20 1.38E-20 1.43E-20 1.11E-20
  1.87E-20 2.07E-20 1.11E-20 2.15E-20 1.86E-20 2.23E-20 1.93E-20 1.71E-20
  1.16E-20 1.93E-20 1.17E-20 1.57E-20 9.77E-21 1.49E-20 1.88E-20 1.46E-20
  1.79E-20 1.32E-20 1.24E-20 1.43E-20 1.15E-20 1.74E-20 1.63E-20 1.03E-20
  2.49E-20 1.89E-20 2.51E-20 1.96E-19 7.71E-13
   0.0714 -0.0833  0.1000    1  5.85791E-13 kpt; spin; max resid(k); each band:
  1.60E-20 1.94E-20 9.82E-21 1.98E-20 1.84E-20 1.36E-20 1.44E-20 1.09E-20
  1.89E-20 2.00E-20 1.12E-20 2.16E-20 1.92E-20 1.92E-20 1.99E-20 1.76E-20
  9.92E-21 1.95E-20 1.04E-20 1.41E-20 1.09E-20 1.87E-20 1.52E-20 1.53E-20
  1.45E-20 1.33E-20 1.22E-20 1.46E-20 1.25E-20 1.41E-20 1.59E-20 1.01E-20
  2.10E-20 1.63E-20 2.05E-20 1.76E-18 5.86E-13
   0.2143 -0.0833  0.1000    1  9.90763E-11 kpt; spin; max resid(k); each band:
  1.59E-20 1.92E-20 9.69E-21 1.69E-20 1.94E-20 1.35E-20 1.43E-20 1.08E-20
  1.86E-20 2.00E-20 1.19E-20 2.16E-20 2.06E-20 1.85E-20 2.09E-20 1.89E-20
  1.01E-20 1.76E-20 1.11E-20 1.17E-20 1.95E-20 1.33E-20 1.48E-20 1.31E-20
  1.19E-20 1.27E-20 1.23E-20 1.54E-20 1.57E-20 1.10E-20 1.70E-20 1.02E-20
  2.74E-20 1.52E-20 2.19E-20 2.28E-19 9.91E-11
   0.3571 -0.0833  0.1000    1  9.15826E-06 kpt; spin; max resid(k); each band:
  1.58E-20 1.93E-20 9.56E-21 1.54E-20 1.88E-20 1.40E-20 1.39E-20 1.07E-20
  1.81E-20 2.02E-20 1.25E-20 2.23E-20 1.83E-20 1.71E-20 1.95E-20 1.93E-20
  1.03E-20 1.59E-20 1.25E-20 1.14E-20 1.70E-20 1.55E-20 1.51E-20 1.34E-20
  8.54E-21 1.27E-20 1.16E-20 1.64E-20 1.30E-20 2.71E-20 2.69E-20 1.01E-20
  4.66E-20 1.74E-20 2.49E-20 1.06E-19 9.16E-06
   0.5000 -0.0833  0.1000    1  1.09324E-07 kpt; spin; max resid(k); each band:
  1.57E-20 1.96E-20 9.54E-21 1.50E-20 1.81E-20 1.44E-20 1.37E-20 1.07E-20
  1.77E-20 2.05E-20 1.28E-20 2.36E-20 2.10E-20 1.85E-20 1.95E-20 1.82E-20
  1.06E-20 1.68E-20 1.22E-20 1.25E-20 1.56E-20 1.57E-20 1.59E-20 1.37E-20
  7.71E-21 1.31E-20 1.11E-20 1.69E-20 1.93E-20 3.07E-20 2.06E-20 9.90E-21
  4.67E-20 2.21E-20 3.56E-20 2.02E-20 1.09E-07
  -0.3571 -0.0833  0.1000    1  2.43405E-06 kpt; spin; max resid(k); each band:
  1.56E-20 1.95E-20 9.61E-21 1.59E-20 1.85E-20 1.40E-20 1.40E-20 1.06E-20
  1.80E-20 2.06E-20 1.25E-20 2.32E-20 1.92E-20 1.80E-20 1.95E-20 1.96E-20
  1.03E-20 1.79E-20 1.06E-20 1.33E-20 1.68E-20 1.38E-20 1.64E-20 1.35E-20
  8.87E-21 1.08E-20 1.29E-20 1.59E-20 1.06E-20 2.69E-20 2.36E-20 9.78E-21
  2.61E-20 2.38E-20 2.65E-20 1.50E-19 2.43E-06
  -0.2143 -0.0833  0.1000    1  9.36356E-10 kpt; spin; max resid(k); each band:
  1.57E-20 1.96E-20 9.73E-21 1.79E-20 1.87E-20 1.38E-20 1.42E-20 1.07E-20
  1.85E-20 2.04E-20 1.18E-20 2.31E-20 1.80E-20 1.91E-20 2.01E-20 1.98E-20
  9.99E-21 1.96E-20 9.94E-21 1.35E-20 1.31E-20 1.86E-20 1.64E-20 1.36E-20
  1.25E-20 1.16E-20 1.31E-20 1.49E-20 1.23E-20 1.64E-20 1.63E-20 9.86E-21
  2.31E-20 2.02E-20 2.60E-20 4.67E-19 9.36E-10
  -0.0714 -0.0833  0.1000    1  1.49066E-14 kpt; spin; max resid(k); each band:
  1.59E-20 1.95E-20 9.78E-21 1.97E-20 1.87E-20 1.42E-20 1.39E-20 1.09E-20
  1.89E-20 2.02E-20 1.12E-20 2.25E-20 1.81E-20 2.07E-20 1.74E-20 1.75E-20
  9.85E-21 2.02E-20 9.74E-21 1.48E-20 1.03E-20 1.85E-20 1.62E-20 1.51E-20
  1.48E-20 1.24E-20 1.28E-20 1.43E-20 1.22E-20 1.54E-20 1.59E-20 9.96E-21
  2.03E-20 1.88E-20 2.07E-20 9.57E-18 1.49E-14
   0.0714  0.0833  0.3000    1  1.78931E-09 kpt; spin; max resid(k); each band:
  1.52E-20 1.97E-20 9.92E-21 2.00E-20 1.73E-20 1.36E-20 1.44E-20 1.10E-20
  1.87E-20 2.05E-20 1.12E-20 2.11E-20 2.09E-20 1.71E-20 1.87E-20 1.85E-20
  9.53E-21 1.48E-20 1.76E-20 9.67E-21 1.29E-20 9.49E-21 1.67E-20 1.46E-20
  1.41E-20 1.46E-20 1.26E-20 1.46E-20 1.72E-20 1.17E-20 1.74E-20 1.05E-20
  2.89E-20 3.14E-20 2.58E-20 3.45E-20 1.79E-09
   0.2143  0.0833  0.3000    1  9.37442E-08 kpt; spin; max resid(k); each band:
  1.52E-20 1.96E-20 1.00E-20 1.96E-20 1.67E-20 1.36E-20 1.42E-20 1.10E-20
  1.86E-20 2.00E-20 1.12E-20 2.16E-20 1.84E-20 1.98E-20 1.74E-20 1.85E-20
  9.61E-21 1.49E-20 1.76E-20 1.03E-20 1.38E-20 1.66E-20 9.25E-21 1.21E-20
  1.48E-20 1.50E-20 1.07E-20 1.43E-20 2.18E-20 1.28E-20 1.93E-20 1.03E-20
  3.79E-20 5.47E-20 3.33E-20 7.05E-20 9.37E-08
   0.3571  0.0833  0.3000    1  5.10720E-07 kpt; spin; max resid(k); each band:
  1.55E-20 1.94E-20 1.03E-20 1.55E-20 1.86E-20 1.44E-20 1.39E-20 1.10E-20
  1.85E-20 1.94E-20 1.22E-20 2.18E-20 1.85E-20 1.84E-20 1.77E-20 1.87E-20
  9.62E-21 1.57E-20 1.73E-20 1.16E-20 1.64E-20 1.46E-20 8.90E-21 1.35E-20
  1.63E-20 1.44E-20 8.68E-21 1.45E-20 3.14E-20 1.10E-20 2.37E-20 1.02E-20
  2.39E-20 4.78E-20 2.66E-20 1.14E-19 5.11E-07
   0.5000  0.0833  0.3000    1  5.83792E-12 kpt; spin; max resid(k); each band:
  1.54E-20 1.93E-20 1.01E-20 1.53E-20 1.87E-20 1.43E-20 1.38E-20 1.09E-20
  1.85E-20 1.94E-20 1.23E-20 2.19E-20 2.11E-20 1.93E-20 1.69E-20 2.01E-20
  9.32E-21 1.69E-20 1.66E-20 1.05E-20 1.58E-20 1.17E-20 1.32E-20 1.51E-20
  1.49E-20 1.41E-20 7.70E-21 1.51E-20 2.46E-20 1.07E-20 1.85E-20 9.44E-21
  2.81E-20 3.75E-20 1.96E-20 3.81E-20 5.84E-12
  -0.3571  0.0833  0.3000    1  1.89341E-10 kpt; spin; max resid(k); each band:
  1.52E-20 1.95E-20 9.91E-21 1.83E-20 1.72E-20 1.38E-20 1.40E-20 1.08E-20
  1.85E-20 2.01E-20 1.24E-20 2.20E-20 1.99E-20 1.94E-20 1.76E-20 2.08E-20
  1.01E-20 1.74E-20 1.63E-20 1.03E-20 1.61E-20 1.14E-20 1.42E-20 1.67E-20
  1.31E-20 1.44E-20 9.52E-21 1.54E-20 2.81E-20 1.31E-20 2.08E-20 9.34E-21
  4.30E-20 2.29E-20 1.55E-20 1.51E-18 1.89E-10
  -0.2143  0.0833  0.3000    1  2.11988E-10 kpt; spin; max resid(k); each band:
  1.52E-20 1.98E-20 9.92E-21 1.97E-20 1.64E-20 1.42E-20 1.38E-20 1.09E-20
  1.86E-20 2.01E-20 1.31E-20 2.16E-20 1.97E-20 1.72E-20 1.81E-20 2.12E-20
  1.18E-20 1.63E-20 1.69E-20 1.05E-20 1.46E-20 9.39E-21 1.53E-20 1.86E-20
  1.31E-20 1.46E-20 1.26E-20 1.51E-20 1.95E-20 1.38E-20 1.79E-20 1.01E-20
  2.29E-20 3.78E-20 1.94E-20 1.64E-18 2.12E-10
  -0.0714  0.0833  0.3000    1  2.77077E-10 kpt; spin; max resid(k); each band:
  1.52E-20 1.99E-20 9.94E-21 2.00E-20 1.74E-20 1.40E-20 1.40E-20 1.10E-20
  1.87E-20 2.04E-20 1.25E-20 2.11E-20 1.99E-20 1.85E-20 1.72E-20 2.04E-20
  1.18E-20 1.53E-20 1.71E-20 9.57E-21 1.35E-20 9.14E-21 1.60E-20 1.82E-20
  1.37E-20 1.42E-20 1.38E-20 1.50E-20 1.63E-20 1.28E-20 1.72E-20 1.03E-20
  2.17E-20 3.21E-20 1.67E-20 4.99E-20 2.77E-10
   0.0714  0.2500  0.3000    1  5.80889E-08 kpt; spin; max resid(k); each band:
  1.54E-20 1.97E-20 1.00E-20 2.06E-20 1.65E-20 1.41E-20 1.42E-20 1.12E-20
  1.85E-20 2.05E-20 1.19E-20 2.06E-20 1.99E-20 1.70E-20 1.85E-20 1.88E-20
  1.02E-20 1.58E-20 1.70E-20 1.06E-20 1.35E-20 8.68E-21 1.73E-20 1.70E-20
  1.42E-20 1.47E-20 1.32E-20 1.33E-20 1.82E-20 1.16E-20 1.76E-20 1.08E-20
  3.04E-20 4.07E-20 2.63E-20 2.40E-20 5.81E-08
 outwf : prtvol=0 or 1, do not print more k-points.
 
 reduced coordinates (array xred) for   12 atoms
       0.606730770694      0.778166429343      0.239929670135
       0.393269229306      0.221833570657      0.760070329865
       0.044680569463      0.313002895424      0.217300094618
       0.955319430537      0.686997104576      0.782699905382
       0.584963974087      0.039653908578      0.416717516834
       0.415036025913      0.960346091422      0.583282483166
       0.767254565736      0.895296506671      0.102658857937
       0.232745434264      0.104703493329      0.897341142063
       0.308403164563      0.654539706510      0.120799865737
       0.691596835437      0.345460293490      0.879200134263
       0.765194188370      0.633799313216      0.382018765638
       0.234805811630      0.366200686784      0.617981234362
 rms dE/dt=  3.2000E-05; max dE/dt=  6.7820E-05; dE/dt below (all hartree)
    1      -0.000001104966     -0.000041984924     -0.000022826963
    2       0.000001104966      0.000041984924      0.000022826963
    3      -0.000035244356      0.000064751999      0.000037085580
    4       0.000035244356     -0.000064751999     -0.000037085580
    5       0.000004014712      0.000067820405     -0.000036666381
    6      -0.000004014712     -0.000067820405      0.000036666381
    7      -0.000026240574     -0.000020919955      0.000034704568
    8       0.000026240574      0.000020919955     -0.000034704568
    9      -0.000011393776      0.000022857100      0.000017035248
   10       0.000011393776     -0.000022857100     -0.000017035248
   11      -0.000006471260      0.000005388591      0.000005685449
   12       0.000006471260     -0.000005388591     -0.000005685449
 
 cartesian coordinates (angstrom) at end:
    1      2.00295471950974     3.95491519029920     1.37899614150335
    2      0.65221241353312     0.12694330804519     4.36850536894944
    3     -0.31703746723734     1.41606593472433     1.24893262203849
    4      2.97220460028021     2.66579256362005     4.49856888841430
    5      2.18207262912241    -0.38355418609922     2.39508455743555
    6      0.47309450392045     4.46541268444360     3.35241695301724
    7      2.87882526695153     4.80100997194806     0.59003194105427
    8     -0.22365813390867    -0.71915147360368     5.15746956939853
    9      0.83331645804413     3.44378368822562     0.69429741078590
   10      1.82185067499873     0.63807481011876     5.05320409966689
   11      2.66467750742173     2.95127521478186     2.19565343252572
   12     -0.00951037437887     1.13058328356253     3.55184807792708
 
 cartesian forces (hartree/bohr) at end:
    1      0.00000012232697     0.00000403475712     0.00000314703525
    2     -0.00000012232697    -0.00000403475712    -0.00000314703525
    3      0.00000390178036    -0.00000569011391    -0.00000389269231
    4     -0.00000390178036     0.00000569011391     0.00000389269231
    5     -0.00000044445486    -0.00000654969008     0.00000161888020
    6      0.00000044445486     0.00000654969008    -0.00000161888020
    7      0.00000290500297     0.00000238069692    -0.00000188595434
    8     -0.00000290500297    -0.00000238069692     0.00000188595434
    9      0.00000126136543    -0.00000202367415    -0.00000176939129
   10     -0.00000126136543     0.00000202367415     0.00000176939129
   11      0.00000071641071    -0.00000042252582    -0.00000045466462
   12     -0.00000071641071     0.00000042252582     0.00000045466462
 frms,max,avg= 3.0004470E-06 6.5496901E-06   0.000E+00  0.000E+00  0.000E+00 h/b
 
 cartesian forces (eV/Angstrom) at end:
    1      0.00000629030530     0.00020747553563     0.00016182704528
    2     -0.00000629030530    -0.00020747553563    -0.00016182704528
    3      0.00020063759616    -0.00029259739686    -0.00020017026981
    4     -0.00020063759616     0.00029259739686     0.00020017026981
    5     -0.00002285478615    -0.00033679857717     0.00008324615980
    6      0.00002285478615     0.00033679857717    -0.00008324615980
    7      0.00014938124619     0.00012242034733    -0.00009697966339
    8     -0.00014938124619    -0.00012242034733     0.00009697966339
    9      0.00006486201286    -0.00010406149989    -0.00009098575085
   10     -0.00006486201286     0.00010406149989     0.00009098575085
   11      0.00003683931665    -0.00002172714949    -0.00002337979260
   12     -0.00003683931665     0.00002172714949     0.00002337979260
 frms,max,avg= 1.5428917E-04 3.3679858E-04   0.000E+00  0.000E+00  0.000E+00 e/A
 length scales=  9.032890758000  9.032890758000  9.032890758000 bohr
              =  4.779999916817  4.779999916817  4.779999916817 angstroms
 prteigrs : about to open file Na2SO42_0_DS1_EIG
 Fermi (or HOMO) energy (hartree) =   0.08792   Average Vxc (hartree)=  -0.35597
 Eigenvalues (hartree) for nkpt= 105  k points:
 kpt#   1, nband= 37, wtk=  0.00952, kpt=  0.0714  0.0833  0.1000 (reduced coord)
  -0.82371  -0.79867  -0.72224  -0.65747  -0.65684  -0.65017  -0.64970  -0.58384
  -0.31084  -0.27476  -0.23464  -0.21251  -0.18152  -0.17642  -0.16952  -0.16242
  -0.12581  -0.11719  -0.08074  -0.07480  -0.06545  -0.06095  -0.05673  -0.04579
  -0.03859  -0.02772  -0.02184  -0.00573   0.01280   0.01436   0.02671   0.15260
   0.24856   0.29879   0.31303   0.33044   0.36286
      occupation numbers for kpt#   1
   2.00000   2.00000   2.00000   2.00000   2.00000   2.00000   2.00000   2.00000
   2.00000   2.00000   2.00000   2.00000   2.00000   2.00000   2.00000   2.00000
   2.00000   2.00000   2.00000   2.00000   2.00000   2.00000   2.00000   2.00000
   2.00000   2.00000   2.00000   2.00000   2.00000   2.00000   1.99998   0.00000
   0.00000   0.00000   0.00000   0.00000   0.00000
 kpt#   2, nband= 37, wtk=  0.00952, kpt=  0.2143  0.0833  0.1000 (reduced coord)
  -0.82319  -0.79865  -0.72228  -0.65777  -0.65731  -0.65086  -0.64973  -0.58375
  -0.30857  -0.27675  -0.23063  -0.21366  -0.18106  -0.17661  -0.17093  -0.16222
  -0.12769  -0.11821  -0.08025  -0.07398  -0.06416  -0.06218  -0.06010  -0.04340
  -0.03827  -0.02889  -0.02084  -0.00633   0.01609   0.01631   0.02484   0.15235
   0.26304   0.29958   0.31133   0.32495   0.36801
      occupation numbers for kpt#   2
   2.00000   2.00000   2.00000   2.00000   2.00000   2.00000   2.00000   2.00000
   2.00000   2.00000   2.00000   2.00000   2.00000   2.00000   2.00000   2.00000
   2.00000   2.00000   2.00000   2.00000   2.00000   2.00000   2.00000   2.00000
[...]
                       1.999995  0.000005  0.000000  0.000000  0.000000  0.000000
                       0.000000
                       2.000000  2.000000  2.000000  2.000000  2.000000  2.000000
                       2.000000  2.000000  2.000000  2.000000  2.000000  2.000000
                       2.000000  2.000000  2.000000  2.000000  2.000000  2.000000
                       2.000000  2.000000  2.000000  2.000000  2.000000  2.000000
                       2.000000  2.000000  2.000000  2.000000  1.999999  1.999999
                       1.999997  0.000005  0.000000  0.000000  0.000000  0.000000
                       0.000000
                       2.000000  2.000000  2.000000  2.000000  2.000000  2.000000
                       2.000000  2.000000  2.000000  2.000000  2.000000  2.000000
                       2.000000  2.000000  2.000000  2.000000  2.000000  2.000000
                       2.000000  2.000000  2.000000  2.000000  2.000000  2.000000
                       2.000000  2.000000  2.000000  2.000000  1.999999  1.999998
                       1.999996  0.000006  0.000000  0.000000  0.000000  0.000000
                       0.000000
                       2.000000  2.000000  2.000000  2.000000  2.000000  2.000000
                       2.000000  2.000000  2.000000  2.000000  2.000000  2.000000
                       2.000000  2.000000  2.000000  2.000000  2.000000  2.000000
                       2.000000  2.000000  2.000000  2.000000  2.000000  2.000000
                       2.000000  2.000000  2.000000  2.000000  1.999999  1.999998
                       1.999997  0.000006  0.000000  0.000000  0.000000  0.000000
                       0.000000
                       2.000000  2.000000  2.000000  2.000000  2.000000  2.000000
                       2.000000  2.000000  2.000000  2.000000  2.000000  2.000000
                       2.000000  2.000000  2.000000  2.000000  2.000000  2.000000
                       2.000000  2.000000  2.000000  2.000000  2.000000  2.000000
                       2.000000  2.000000  2.000000  2.000000  2.000000  1.999999
                       1.999994  0.000006  0.000000  0.000000  0.000000  0.000000
                       0.000000
                       2.000000  2.000000  2.000000  2.000000  2.000000  2.000000
                       2.000000  2.000000  2.000000  2.000000  2.000000  2.000000
                       2.000000  2.000000  2.000000  2.000000  2.000000  2.000000
                       2.000000  2.000000  2.000000  2.000000  2.000000  2.000000
                       2.000000  2.000000  2.000000  2.000000  2.000000  2.000000
                       1.999989  0.000005  0.000000  0.000000  0.000000  0.000000
                       0.000000
                       2.000000  2.000000  2.000000  2.000000  2.000000  2.000000
                       2.000000  2.000000  2.000000  2.000000  2.000000  2.000000
                       2.000000  2.000000  2.000000  2.000000  2.000000  2.000000
                       2.000000  2.000000  2.000000  2.000000  2.000000  2.000000
                       2.000000  2.000000  2.000000  2.000000  2.000000  2.000000
                       1.999985  0.000005  0.000000  0.000000  0.000000  0.000000
                       0.000000
                       2.000000  2.000000  2.000000  2.000000  2.000000  2.000000
                       2.000000  2.000000  2.000000  2.000000  2.000000  2.000000
                       2.000000  2.000000  2.000000  2.000000  2.000000  2.000000
                       2.000000  2.000000  2.000000  2.000000  2.000000  2.000000
                       2.000000  2.000000  2.000000  2.000000  2.000000  2.000000
                       1.999992  0.000005  0.000000  0.000000  0.000000  0.000000
                       0.000000
                       2.000000  2.000000  2.000000  2.000000  2.000000  2.000000
                       2.000000  2.000000  2.000000  2.000000  2.000000  2.000000
                       2.000000  2.000000  2.000000  2.000000  2.000000  2.000000
                       2.000000  2.000000  2.000000  2.000000  2.000000  2.000000
                       2.000000  2.000000  2.000000  2.000000  1.999999  1.999999
                       1.999995  0.000005  0.000000  0.000000  0.000000  0.000000
                       0.000000
                       2.000000  2.000000  2.000000  2.000000  2.000000  2.000000
                       2.000000  2.000000  2.000000  2.000000  2.000000  2.000000
                       2.000000  2.000000  2.000000  2.000000  2.000000  2.000000
                       2.000000  2.000000  2.000000  2.000000  2.000000  2.000000
                       2.000000  2.000000  2.000000  2.000000  1.999999  1.999998
                       1.999995  0.000006  0.000000  0.000000  0.000000  0.000000
                       0.000000
                       2.000000  2.000000  2.000000  2.000000  2.000000  2.000000
                       2.000000  2.000000  2.000000  2.000000  2.000000  2.000000
                       2.000000  2.000000  2.000000  2.000000  2.000000  2.000000
                       2.000000  2.000000  2.000000  2.000000  2.000000  2.000000
                       2.000000  2.000000  2.000000  2.000000  1.999999  1.999998
                       1.999997  0.000006  0.000000  0.000000  0.000000  0.000000
                       0.000000
                       2.000000  2.000000  2.000000  2.000000  2.000000  2.000000
                       2.000000  2.000000  2.000000  2.000000  2.000000  2.000000
                       2.000000  2.000000  2.000000  2.000000  2.000000  2.000000
                       2.000000  2.000000  2.000000  2.000000  2.000000  2.000000
                       2.000000  2.000000  2.000000  2.000000  2.000000  1.999999
                       1.999992  0.000006  0.000000  0.000000  0.000000  0.000000
                       0.000000
                       2.000000  2.000000  2.000000  2.000000  2.000000  2.000000
                       2.000000  2.000000  2.000000  2.000000  2.000000  2.000000
                       2.000000  2.000000  2.000000  2.000000  2.000000  2.000000
                       2.000000  2.000000  2.000000  2.000000  2.000000  2.000000
                       2.000000  2.000000  2.000000  2.000000  2.000000  2.000000
                       1.999985  0.000005  0.000000  0.000000  0.000000  0.000000
                       0.000000
                       2.000000  2.000000  2.000000  2.000000  2.000000  2.000000
                       2.000000  2.000000  2.000000  2.000000  2.000000  2.000000
                       2.000000  2.000000  2.000000  2.000000  2.000000  2.000000
                       2.000000  2.000000  2.000000  2.000000  2.000000  2.000000
                       2.000000  2.000000  2.000000  2.000000  2.000000  2.000000
                       1.999985  0.000009  0.000000  0.000000  0.000000  0.000000
                       0.000000
                       2.000000  2.000000  2.000000  2.000000  2.000000  2.000000
                       2.000000  2.000000  2.000000  2.000000  2.000000  2.000000
                       2.000000  2.000000  2.000000  2.000000  2.000000  2.000000
                       2.000000  2.000000  2.000000  2.000000  2.000000  2.000000
                       2.000000  2.000000  2.000000  2.000000  2.000000  2.000000
                       1.999991  0.000008  0.000000  0.000000  0.000000  0.000000
                       0.000000
                       2.000000  2.000000  2.000000  2.000000  2.000000  2.000000
                       2.000000  2.000000  2.000000  2.000000  2.000000  2.000000
                       2.000000  2.000000  2.000000  2.000000  2.000000  2.000000
                       2.000000  2.000000  2.000000  2.000000  2.000000  2.000000
                       2.000000  2.000000  2.000000  2.000000  1.999999  1.999999
                       1.999994  0.000008  0.000000  0.000000  0.000000  0.000000
                       0.000000
                       2.000000  2.000000  2.000000  2.000000  2.000000  2.000000
                       2.000000  2.000000  2.000000  2.000000  2.000000  2.000000
                       2.000000  2.000000  2.000000  2.000000  2.000000  2.000000
                       2.000000  2.000000  2.000000  2.000000  2.000000  2.000000
                       2.000000  2.000000  2.000000  2.000000  1.999999  1.999999
                       1.999996  0.000008  0.000000  0.000000  0.000000  0.000000
                       0.000000
                       2.000000  2.000000  2.000000  2.000000  2.000000  2.000000
                       2.000000  2.000000  2.000000  2.000000  2.000000  2.000000
                       2.000000  2.000000  2.000000  2.000000  2.000000  2.000000
                       2.000000  2.000000  2.000000  2.000000  2.000000  2.000000
                       2.000000  2.000000  2.000000  2.000000  1.999999  1.999998
                       1.999998  0.000009  0.000000  0.000000  0.000000  0.000000
                       0.000000
                       2.000000  2.000000  2.000000  2.000000  2.000000  2.000000
                       2.000000  2.000000  2.000000  2.000000  2.000000  2.000000
                       2.000000  2.000000  2.000000  2.000000  2.000000  2.000000
                       2.000000  2.000000  2.000000  2.000000  2.000000  2.000000
                       2.000000  2.000000  2.000000  2.000000  2.000000  1.999999
                       1.999993  0.000010  0.000000  0.000000  0.000000  0.000000
                       0.000000
                       2.000000  2.000000  2.000000  2.000000  2.000000  2.000000
                       2.000000  2.000000  2.000000  2.000000  2.000000  2.000000
                       2.000000  2.000000  2.000000  2.000000  2.000000  2.000000
                       2.000000  2.000000  2.000000  2.000000  2.000000  2.000000
                       2.000000  2.000000  2.000000  2.000000  2.000000  2.000000
                       1.999986  0.000010  0.000000  0.000000  0.000000  0.000000
                       0.000000
                       2.000000  2.000000  2.000000  2.000000  2.000000  2.000000
                       2.000000  2.000000  2.000000  2.000000  2.000000  2.000000
                       2.000000  2.000000  2.000000  2.000000  2.000000  2.000000
                       2.000000  2.000000  2.000000  2.000000  2.000000  2.000000
                       2.000000  2.000000  2.000000  2.000000  2.000000  2.000000
                       1.999988  0.000008  0.000000  0.000000  0.000000  0.000000
                       0.000000
                       prtocc : prtvol=0, do not print more k-points.
           occopt           7
        optdriver1          0
        optdriver2          1
        optdriver3          1
          rfatpol1          1       1
          rfatpol2          1       1
          rfatpol3          1      12
            rfdir1          0       0       0
            rfdir2          1       1       1
            rfdir3          1       1       1
           rfelfd1          0
           rfelfd2          2
           rfelfd3          3
           rfphon1          0
           rfphon2          0
           rfphon3          1
            rprim      1.0000000000E+00  0.0000000000E+00  0.0000000000E+00
                      -1.5057997195E-01  1.1565566695E+00  0.0000000000E+00
                      -2.9394572277E-01 -3.0261136205E-01  1.2024061947E+00
           shiftk      5.00000000E-01  5.00000000E-01  5.00000000E-01
          spgroup           2
           strten1    -1.6025516762E-04 -1.6786158245E-04 -2.1630228595E-04
                       5.2898951164E-06 -1.6312319833E-05 -2.4250737785E-05
           strten3     0.0000000000E+00  0.0000000000E+00  0.0000000000E+00
                       0.0000000000E+00  0.0000000000E+00  0.0000000000E+00
           symrel      1  0  0   0  1  0   0  0  1      -1  0  0   0 -1  0   0  0 -1
           tolvrs1     1.00000000E-14
           tolvrs2     0.00000000E+00
           tolvrs3     1.00000000E-14
           tolwfr1     0.00000000E+00
           tolwfr2     1.00000000E-18
           tolwfr3     0.00000000E+00
           tsmear      2.00000000E-02 Hartree
            typat      1  1  2  2  3  3  3  3  3  3  3  3
              wtk        0.00952    0.00952    0.00952    0.00952    0.00952    0.00952
                         0.00952    0.00952    0.00952    0.00952    0.00952    0.00952
                         0.00952    0.00952    0.00952    0.00952    0.00952    0.00952
                         0.00952    0.00952    0.00952    0.00952    0.00952    0.00952
                         0.00952    0.00952    0.00952    0.00952    0.00952    0.00952
                         0.00952    0.00952    0.00952    0.00952    0.00952    0.00952
                         0.00952    0.00952    0.00952    0.00952    0.00952    0.00952
                         0.00952    0.00952    0.00952    0.00952    0.00952    0.00952
                         0.00952    0.00952
                       outvars : Printing only first  50 k-points.
           xangst      2.0029547195E+00  3.9549151903E+00  1.3789961415E+00
                       6.5221241353E-01  1.2694330805E-01  4.3685053689E+00
                      -3.1703746724E-01  1.4160659347E+00  1.2489326220E+00
                       2.9722046003E+00  2.6657925636E+00  4.4985688884E+00
                       2.1820726291E+00 -3.8355418610E-01  2.3950845574E+00
                       4.7309450392E-01  4.4654126844E+00  3.3524169530E+00
                       2.8788252670E+00  4.8010099719E+00  5.9003194105E-01
                      -2.2365813391E-01 -7.1915147360E-01  5.1574695694E+00
                       8.3331645804E-01  3.4437836882E+00  6.9429741079E-01
                       1.8218506750E+00  6.3807481012E-01  5.0532040997E+00
                       2.6646775074E+00  2.9512752148E+00  2.1956534325E+00
                      -9.5103743789E-03  1.1305832836E+00  3.5518480779E+00
            xcart      3.7850358764E+00  7.4737065885E+00  2.6059250457E+00
                       1.2325028420E+00  2.3988808661E-01  8.2552787574E+00
                      -5.9911398694E-01  2.6759768027E+00  2.3601406141E+00
                       5.6166527054E+00  5.0376178723E+00  8.5010631890E+00
                       4.1235196711E+00 -7.2481236885E-01  4.5260538787E+00
                       8.9401904738E-01  8.4384070439E+00  6.3351499244E+00
                       5.4401913390E+00  9.0725940082E+00  1.1149987782E+00
                      -4.2265262048E-01 -1.3589993332E+00  9.7462050249E+00
                       1.5747398877E+00  6.5078080316E+00  1.3120319612E+00
                       3.4427988308E+00  1.2057866434E+00  9.5491718419E+00
                       5.0355107215E+00  5.5771018987E+00  4.1491836702E+00
                      -1.7972002997E-02  2.1364927764E+00  6.7120201329E+00
             xred      6.0673077069E-01  7.7816642934E-01  2.3992967014E-01
                       3.9326922931E-01  2.2183357066E-01  7.6007032987E-01
                       4.4680569463E-02  3.1300289542E-01  2.1730009462E-01
                       9.5531943054E-01  6.8699710458E-01  7.8269990538E-01
                       5.8496397409E-01  3.9653908578E-02  4.1671751683E-01
                       4.1503602591E-01  9.6034609142E-01  5.8328248317E-01
                       7.6725456574E-01  8.9529650667E-01  1.0265885794E-01
                       2.3274543426E-01  1.0470349333E-01  8.9734114206E-01
                       3.0840316456E-01  6.5453970651E-01  1.2079986574E-01
                       6.9159683544E-01  3.4546029349E-01  8.7920013426E-01
                       7.6519418837E-01  6.3379931322E-01  3.8201876564E-01
                       2.3480581163E-01  3.6620068678E-01  6.1798123436E-01
            znucl       16.00000   11.00000    8.00000
 
================================================================================


- Timing analysis has been suppressed with timopt=0



================================================================================

 Suggested references for the acknowledgment of ABINIT usage.

 The users of ABINIT have little formal obligations with respect to the ABINIT group
 (those specified in the GNU General Public License, http://www.gnu.org/copyleft/gpl.txt).
 However, it is common practice in the scientific literature,
 to acknowledge the efforts of people that have made the research possible.
 In this spirit, please find below suggested citations of work written by ABINIT developers,
 corresponding to implementations inside of ABINIT that you have used in the present run.
 Note also that it will be of great value to readers of publications presenting these results,
 to read papers enabling them to understand the theoretical formalism and details
 of the ABINIT implementation.
 For information on why they are suggested, see also http://www.abinit.org/about/?text=acknowledgments.

 [1] First-principles responses of solids to atomic displacements and homogeneous electric fields:,
 implementation of a conjugate-gradient algorithm. X. Gonze, Phys. Rev. B55, 10337 (1997).
 Comment : Non-vanishing rfphon and/or rfelfd, in the norm-conserving case.

 [2] Dynamical matrices, Born effective charges, dielectric permittivity tensors, and ,
 interatomic force constants from density-functional perturbation theory,
 X. Gonze and C. Lee, Phys. Rev. B55, 10355 (1997).
 Comment : Non-vanishing rfphon and/or rfelfd, in the norm-conserving case.

 [3] ABINIT : First-principles approach of materials and nanosystem properties.
 X. Gonze, B. Amadon, P.-M. Anglade, J.-M. Beuken, F. Bottin, P. Boulanger, F. Bruneval,
 D. Caliste, R. Caracas, M. Cote, T. Deutsch, L. Genovese, Ph. Ghosez, M. Giantomassi
 S. Goedecker, D.R. Hamann, P. Hermet, F. Jollet, G. Jomard, S. Leroux, M. Mancini, S. Mazevet,
 M.J.T. Oliveira, G. Onida, Y. Pouillon, T. Rangel, G.-M. Rignanese, D. Sangalli, R. Shaltaf,
 M. Torrent, M.J. Verstraete, G. Zerah, J.W. Zwanziger
 Computer Phys. Comm. 180, 2582-2615 (2009).
 Comment : the third generic paper describing the ABINIT project.
 Note that a version of this paper, that is not formatted for Computer Phys. Comm. 
 is available at http://www.abinit.org/about/ABINIT_CPC_v10.pdf .
 The licence allows the authors to put it on the Web.

 [4] A brief introduction to the ABINIT software package.
 X. Gonze, G.-M. Rignanese, M. Verstraete, J.-M. Beuken, Y. Pouillon, R. Caracas, F. Jollet,
 M. Torrent, G. Zerah, M. Mikami, Ph. Ghosez, M. Veithen, J.-Y. Raty, V. Olevano, F. Bruneval,
 L. Reining, R. Godby, G. Onida, D.R. Hamann, and D.C. Allan.
 Z. Kristallogr. 220, 558-562 (2005).
 Comment : the second generic paper describing the ABINIT project. Note that this paper
 should be cited especially if you are using the GW part of ABINIT, as several authors
 of this part are not in the list of authors of the first or third paper.
 The .pdf of the latter paper is available at http://www.abinit.org/about/zfk_0505-06_558-562.pdf.
 Note that it should not redistributed (Copyright by Oldenburg Wissenshaftverlag,
 the licence allows the authors to put it on the Web).


 And optionally :

 [5] First-principles computation of material properties : the ABINIT software project. 
 X. Gonze, J.-M. Beuken, R. Caracas, F. Detraux, M. Fuchs, G.-M. Rignanese, L. Sindic,
 M. Verstraete, G. Zerah, F. Jollet, M. Torrent, A. Roy, M. Mikami, Ph. Ghosez, J.-Y. Raty, D.C. Allan.
 Computational Materials Science 25, 478-492 (2002). http://dx.doi.org/10.1016/S0927-0256(02)00325-7
 Comment : the original paper describing the ABINIT project.
-
- Proc.   0 individual time (sec): cpu=      18366.7  wall=      18361.3
 
================================================================================
 
 Calculation completed.
.Delivered    0 WARNINGs and   0 COMMENTs to log file.
+Overall time at end (sec) : cpu=     588009.2  wall=     587558.6
