# epsilon and Z* of atoms 1 3 5 9 13
   2.30585351    0.00000000    0.00000000    0.00000000    2.30585351    0.00000000    0.00000000    0.00000000    2.69775852 
   1.36081272    1.07515152    0.00000000    1.07515152    1.36081272    0.00000000    0.00000000    0.00000000    2.80966007 
  -0.95053049    0.14464434    0.00000000    0.14464434   -0.95053049    0.00000000    0.00000000    0.00000000   -2.64113206 
  -1.11066815   -0.46913602    0.24645481   -0.46913602   -1.11066815    0.24645481    0.25649697    0.25649697   -1.04790495 
   0.58862324    0.28988726    0.17185594    0.28988726    0.58862324    0.17185594    0.19861600    0.19861600    0.25872288 
   0.31690381   -0.07914779    0.03855556   -0.07914779    0.31690381    0.03855556    0.10728974    0.10728974    0.70491805 
