16   
16   

1    
  0.0076479756461138   0.0000000000000000   0.0064427066141840
  -0.3406761700   -0.1870574600   -0.4977300400
   0.0032055100   -0.0000095500   -0.0109766500
   0.0669318600    0.0114243300    0.2568351500
  -0.0052798800   -0.0029488500    0.0158010700
   0.0955535800    0.0587518200    0.0626567800
   0.0070159400   -0.0088359500   -0.0032450100
   0.1589039600    0.1211327900    0.1514668500
  -0.0080198800    0.0062447100   -0.0021229900
   0.0199917700    0.0162844600   -0.0211718500
  -0.0078056700    0.0055592900    0.0059890500
   0.0064522700    0.0023143600   -0.0057883600
   0.0050883300   -0.0073815600    0.0092781400
  -0.0087705500   -0.0146794400    0.0136524200
   0.0061051300   -0.0053279800    0.0000445900
   0.0055441600   -0.0004694400    0.0259838600
  -0.0042403600    0.0049984600   -0.0006730200

1    
 -0.0076479756461138   0.0000000000000000  -0.0064427066141840
   0.3530823600    0.1988492700    0.4882908700
  -0.0031627600   -0.0000108700    0.0158604400
  -0.0689706700   -0.0109736500   -0.2595843700
   0.0053050200    0.0029919200   -0.0003068400
  -0.0895694400   -0.0523327800   -0.0586952800
   0.0001066400    0.0016697300   -0.0000883900
  -0.1751889900   -0.1390178000   -0.1561357900
   0.0008063300    0.0010152800   -0.0012037500
  -0.0135880100   -0.0093270600    0.0195716000
   0.0142861300   -0.0120300400   -0.0045653300
  -0.0130837300   -0.0092564400    0.0043124600
  -0.0114770500    0.0136867600   -0.0077846200
   0.0162286400    0.0218163400   -0.0109906000
   0.0011348600   -0.0018894800   -0.0026430600
  -0.0129001100   -0.0074265000   -0.0241182200
  -0.0030092100    0.0022353200   -0.0019191200

3    
  0.0076479756461138   0.0000000000000000   0.0064427066141840
   0.0689272300    0.0111319100    0.2493484100
  -0.0053224700    0.0029890000    0.0105260800
  -0.0588026300   -0.0185478300   -0.3523574600
   0.0022066000   -0.0000084800    0.0042594500
  -0.0184137700   -0.0061452700    0.0272024200
   0.0064286100   -0.0062945900   -0.0033393300
   0.0011961600    0.0132626100    0.0807973600
   0.0070784700   -0.0069772700    0.0001236400
   0.0040906000    0.0016271100    0.0030405200
   0.0065968300   -0.0041226700    0.0027334100
  -0.0061503500   -0.0085885600    0.0008256700
  -0.0106847900    0.0131677700   -0.0036445200
   0.0000591000    0.0040841200   -0.0082201300
   0.0032474800   -0.0036922600   -0.0015460200
   0.0020749200    0.0060290200   -0.0078571800
  -0.0025319800    0.0020854000   -0.0018923300

3    
 -0.0076479756461138   0.0000000000000000  -0.0064427066141840
  -0.0669542300   -0.0112661700   -0.2670944600
   0.0052907200   -0.0029519300   -0.0055958300
   0.0561468600    0.0193967500    0.3503849200
  -0.0021915000   -0.0000068700    0.0112522300
   0.0259109200    0.0134171900   -0.0232279400
   0.0008731800   -0.0009872200    0.0000068600
  -0.0084367200   -0.0211404400   -0.0788032100
  -0.0140785100    0.0139327100   -0.0033967100
   0.0024294000    0.0048762700   -0.0044677600
  -0.0001943500   -0.0022303900   -0.0012002400
  -0.0003008400    0.0021710300   -0.0022678800
   0.0042033700   -0.0066200500    0.0050921200
   0.0071968800    0.0031403200    0.0107499700
   0.0039973400   -0.0035370800   -0.0010431500
  -0.0092093600   -0.0133357100    0.0103048900
  -0.0046831700    0.0051416000   -0.0006938200

5    
  0.0100000000000000   0.0000000000000000   0.0000000000000000
   0.1677214000    0.1181724500   -0.0574960500
  -0.0006387500    0.0017157700   -0.0036593200
  -0.0112849100    0.0047870000   -0.0287297300
   0.0087517700    0.0085770800    0.0137893100
  -0.3873193100   -0.3620785400   -0.0296250900
   0.0087969300   -0.0031520300   -0.0006107000
   0.0302561100    0.0413652300   -0.0078254800
  -0.0045697600    0.0031519300   -0.0018503900
   0.1599121300    0.1585836300    0.1020183500
   0.0006171700   -0.0013984100    0.0011988300
  -0.0086596900   -0.0033892100    0.0041060100
   0.0006632600    0.0023035300    0.0018988700
   0.0421779000    0.0354401400    0.0103565000
   0.0012489600   -0.0048898100   -0.0011839900
  -0.0036388400   -0.0039074600   -0.0012000600
  -0.0040343500    0.0047187000   -0.0011870500

5    
 -0.0100000000000000   0.0000000000000000   0.0000000000000000
  -0.1716623600   -0.1244532900    0.0580914400
   0.0006105300   -0.0017291900    0.0085575100
   0.0113549600   -0.0049078700    0.0131570200
  -0.0087502600   -0.0085526100    0.0016931000
   0.3969095700    0.3682845800    0.0187070800
  -0.0015657300   -0.0040325700   -0.0027465300
  -0.0376212700   -0.0494628900    0.0112881300
  -0.0026660000    0.0040455300   -0.0014932800
  -0.1515208300   -0.1441296900   -0.0980002400
   0.0057853200   -0.0050328600    0.0002473100
   0.0021403700   -0.0031866000   -0.0055508400
  -0.0070926200    0.0041316000   -0.0004636100
  -0.0350346600   -0.0278194700   -0.0044617100
   0.0059477200   -0.0023549600   -0.0014220900
  -0.0036343500   -0.0033109400    0.0038095800
  -0.0032003800    0.0025112200   -0.0014128600

5    
  0.0000000000000000   0.0000000000000000   0.0100000000000000
  -0.0627418800   -0.0627418800    0.1644104300
   0.0007139000    0.0007139000    0.0009528500
  -0.0360416200   -0.0360416200    0.0742985800
   0.0022048000    0.0022048000    0.0077437000
  -0.0199034200   -0.0199034200   -0.7535246000
   0.0025296600   -0.0037589800   -0.0006464900
   0.0060507300    0.0060507300   -0.0163541400
  -0.0037589800    0.0025296600   -0.0006464900
   0.1043931500    0.1043931500    0.1476531000
   0.0054219300   -0.0069417000   -0.0006480200
  -0.0006084800   -0.0006084800    0.0023985200
  -0.0069417000    0.0054219300   -0.0006480200
   0.0106442400    0.0106442400    0.3803013000
   0.0036650900   -0.0028810700   -0.0011752800
  -0.0027463700   -0.0027463700   -0.0029401600
  -0.0028810700    0.0036650900   -0.0011752800

5    
  0.0000000000000000   0.0000000000000000  -0.0100000000000000
   0.0590086900    0.0590086900   -0.1683715200
  -0.0007426800   -0.0007426800    0.0041104300
   0.0353341600    0.0353341600   -0.0886995500
  -0.0022787100   -0.0022787100    0.0076129700
   0.0284311900    0.0284311900    0.7839924300
   0.0046790400   -0.0034017800   -0.0027625600
  -0.0130468100   -0.0130468100    0.0197793800
  -0.0034017800    0.0046790400   -0.0027625600
  -0.0944431100   -0.0944431100   -0.1498805700
   0.0010334900    0.0004979800    0.0021091700
  -0.0058976100   -0.0058976100   -0.0038070100
   0.0004979800    0.0010334900    0.0021091700
  -0.0038885800   -0.0038885800   -0.4060114900
   0.0035458700   -0.0043683200   -0.0014691700
  -0.0044627900   -0.0044627900    0.0055200700
  -0.0043683200    0.0035458700   -0.0014691700

9    
  0.0100000000000000   0.0000000000000000   0.0000000000000000
   0.0173332000    0.0119925600    0.0028948900
  -0.0018346700    0.0011238300    0.0175686100
  -0.0013816600   -0.0045628600   -0.0048343200
  -0.0026707600   -0.0059382500   -0.0007684800
   0.1581295900    0.1515424300    0.0986866000
   0.0010043100   -0.0026767000   -0.0038859300
  -0.0090552100   -0.0037656100   -0.0009587500
   0.0002855100    0.0017695200   -0.0054193700
  -0.1596480100   -0.1428639000   -0.0983196500
   0.0053254400   -0.0041817800    0.0005092800
  -0.0027080300   -0.0006016300   -0.0012950700
  -0.0049149900    0.0041809900    0.0005901300
   0.0010857400   -0.0027207700   -0.0008181700
   0.0058893500   -0.0029621200   -0.0028579600
  -0.0024498000   -0.0044002500    0.0010558200
  -0.0043900100    0.0040645300   -0.0021476400

9    
 -0.0100000000000000   0.0000000000000000   0.0000000000000000
  -0.0173813700   -0.0123182100   -0.0080003100
   0.0017905600   -0.0011516100   -0.0124320900
   0.0013308400    0.0045940400   -0.0106649800
   0.0025978000    0.0057640800    0.0160595400
  -0.1533011400   -0.1511758300   -0.1002028900
   0.0061875700   -0.0044996400    0.0005109600
   0.0017597500   -0.0035679200    0.0043385700
  -0.0074558000    0.0054124300    0.0020159100
   0.1687794600    0.1566886400    0.1019844400
   0.0011462200   -0.0022963100    0.0009348700
  -0.0037330000   -0.0058469400   -0.0001694100
  -0.0015545200    0.0022949300    0.0008411600
   0.0061028200    0.0100211200    0.0034760600
   0.0013524000   -0.0042678100    0.0002179200
  -0.0047796200   -0.0028121900    0.0015493900
  -0.0028419500    0.0031612300   -0.0004591400

9    
  0.0000000000000000   0.0000000000000000   0.0100000000000000
  -0.0099139200   -0.0099139200   -0.0221886200
   0.0021546200    0.0021546200    0.0131517600
   0.0014251500    0.0014251500   -0.0036339800
  -0.0041614800   -0.0041614800    0.0059162600
   0.1020080100    0.1020080100    0.1505980100
   0.0031223800   -0.0024298100   -0.0030459900
  -0.0084537100   -0.0084537100    0.0047537200
  -0.0024298100    0.0031223800   -0.0030459900
  -0.0952062300   -0.0952062300   -0.1441293800
   0.0034414100   -0.0033566100    0.0006234300
  -0.0026619500   -0.0026619500   -0.0023854400
  -0.0033566100    0.0034414100    0.0006234300
   0.0195959100    0.0195959100    0.0040442300
   0.0024658200   -0.0042750000   -0.0016252500
  -0.0037546100   -0.0037546100    0.0019690800
  -0.0042750000    0.0024658200   -0.0016252500

9    
  0.0000000000000000   0.0000000000000000  -0.0100000000000000
   0.0101188400    0.0101188400    0.0172757000
  -0.0020990700   -0.0020990700   -0.0082732600
  -0.0014601300   -0.0014601300   -0.0118410600
   0.0041237000    0.0041237000    0.0096671000
  -0.0979579900   -0.0979579900   -0.1469343000
   0.0040821400   -0.0047989300   -0.0002721000
   0.0012121600    0.0012121600   -0.0014359300
  -0.0047989300    0.0040821400   -0.0002721000
   0.1050518500    0.1050518500    0.1425396000
   0.0030181400   -0.0031060000    0.0008164500
  -0.0037853900   -0.0037853900    0.0009436800
  -0.0031060000    0.0030181400    0.0008164500
  -0.0127422900   -0.0127422900   -0.0017402700
   0.0047683700   -0.0029560200   -0.0009651800
  -0.0034693800   -0.0034693800    0.0006404000
  -0.0029560200    0.0047683700   -0.0009651800

13   
  0.0100000000000000   0.0000000000000000   0.0000000000000000
  -0.0020616800   -0.0097600800   -0.0191433800
   0.0011922200    0.0002485100    0.0000174000
   0.0013167100    0.0066079200   -0.0148974800
   0.0004787400    0.0010427800    0.0088840400
   0.0421490000    0.0352376600    0.0070237500
   0.0012477300   -0.0047340500   -0.0017163300
  -0.0036351000   -0.0039067500    0.0008113100
  -0.0040111300    0.0048689400   -0.0009259700
   0.0006324700   -0.0030470400    0.0155603900
   0.0054946600   -0.0036777300    0.0018592000
  -0.0020629000   -0.0040198800   -0.0005800500
  -0.0040052200    0.0025808900    0.0000643300
  -0.0346824100   -0.0199469400    0.0035919900
   0.0050525300   -0.0031791000   -0.0011364200
  -0.0033923700   -0.0014994900    0.0015477800
  -0.0037132700    0.0031843600   -0.0009605700

13   
 -0.0100000000000000   0.0000000000000000   0.0000000000000000
   0.0022307900    0.0095542800    0.0145748400
  -0.0012432100   -0.0001955100    0.0048300900
  -0.0014220400   -0.0066695200   -0.0006006600
  -0.0004659800   -0.0010547500    0.0066317300
  -0.0350597500   -0.0280349500   -0.0074971400
   0.0059576300   -0.0025194600   -0.0015911900
  -0.0036196700   -0.0033170400    0.0025342000
  -0.0031647800    0.0023413200   -0.0024201900
   0.0056478000    0.0096945000   -0.0167749900
   0.0009544400   -0.0027746200   -0.0004428700
  -0.0043960000   -0.0024316800   -0.0008646500
  -0.0024604200    0.0038862700    0.0013818100
   0.0422115500    0.0272706100    0.0022968100
   0.0021797100   -0.0040355300   -0.0014584400
  -0.0038277400   -0.0057546000    0.0010460900
  -0.0035223400    0.0040406900   -0.0016454500

13   
  0.0000000000000000   0.0000000000000000   0.0100000000000000
  -0.0081482800   -0.0081482800    0.0263112700
  -0.0004731800   -0.0004731800    0.0039520500
  -0.0002576000   -0.0002576000   -0.0218877800
  -0.0002202400   -0.0002202400    0.0070847400
   0.0111640700    0.0111640700    0.4086361000
   0.0034942200   -0.0034925700   -0.0015342900
  -0.0011069600   -0.0011069600   -0.0025139500
  -0.0034925700    0.0034942200   -0.0015342900
   0.0010609100    0.0010609100    0.0021889500
   0.0047502000   -0.0040557500    0.0004008400
  -0.0029893800   -0.0029893800   -0.0000601800
  -0.0040557500    0.0047502000    0.0004008400
   0.0039503600    0.0039503600   -0.4177086100
   0.0034524700   -0.0032756700   -0.0014173900
  -0.0038526000   -0.0038526000   -0.0009008900
  -0.0032756700    0.0034524700   -0.0014173900

13   
  0.0000000000000000   0.0000000000000000  -0.0100000000000000
   0.0084963500    0.0084963500   -0.0316929200
   0.0004689500    0.0004689500    0.0009004000
   0.0002679900    0.0002679900    0.0069695700
   0.0002345200    0.0002345200    0.0084323400
  -0.0036757400   -0.0036757400   -0.3776570000
   0.0037375200   -0.0037241400   -0.0018131900
  -0.0061127000   -0.0061127000    0.0059615000
  -0.0037241400    0.0037375200   -0.0018131900
   0.0053533300    0.0053533300   -0.0035925700
   0.0016750200   -0.0023682200    0.0010595800
  -0.0034820700   -0.0034820700   -0.0013907900
  -0.0023682200    0.0016750200    0.0010595800
   0.0026674800    0.0026674800    0.3924299500
   0.0037737500   -0.0039605300   -0.0011925700
  -0.0033515000   -0.0033515000    0.0035318800
  -0.0039605300    0.0037737500   -0.0011925700
