phonopy:
  version: "2.26.3"
  frequency_unit_conversion_factor: 15.633302
  symmetry_tolerance: 1.00000e-05
  configuration:
    qpoints: "0 0 0"
    dim: "1 1 1"
    writedm: ".true."

physical_unit:
  atomic_mass: "AMU"
  length: "angstrom"
  force: "eV/angstrom"
  force_constants: "eV/angstrom^2"

space_group:
  type: "P-42_1m"
  number: 113
  Hall_symbol: "P -4 2ab"

supercell_matrix:
- [   1,   0,   0 ]
- [   0,   1,   0 ]
- [   0,   0,   1 ]

primitive_cell:
  lattice:
  - [     5.519466260036882,     0.000000000000000,     0.000000000000000 ] # a
  - [     0.000000000000000,     5.519466260036882,     0.000000000000000 ] # b
  - [     0.000000000000000,     0.000000000000000,     4.649635854734237 ] # c
  points:
  - symbol: C  # 1
    coordinates: [  0.000000000000000,  0.500000000000000,  0.326599652230694 ]
    mass: 12.010700
  - symbol: C  # 2
    coordinates: [  0.500000000000000,  0.000000000000000,  0.673400347769305 ]
    mass: 12.010700
  - symbol: O  # 3
    coordinates: [  0.000000000000000,  0.500000000000000,  0.601805400372136 ]
    mass: 15.999400
  - symbol: O  # 4
    coordinates: [  0.500000000000000,  0.000000000000000,  0.398194599627863 ]
    mass: 15.999400
  - symbol: N  # 5
    coordinates: [  0.147636239740942,  0.647636239740940,  0.176562033244404 ]
    mass: 14.006700
  - symbol: N  # 6
    coordinates: [  0.647636239740940,  0.852363760259060,  0.823437966755598 ]
    mass: 14.006700
  - symbol: N  # 7
    coordinates: [  0.852363760259060,  0.352363760259058,  0.176562033244404 ]
    mass: 14.006700
  - symbol: N  # 8
    coordinates: [  0.352363760259058,  0.147636239740942,  0.823437966755598 ]
    mass: 14.006700
  - symbol: H  # 9
    coordinates: [  0.262427573238267,  0.762427573238267,  0.281931594697617 ]
    mass: 1.007940
  - symbol: H  # 10
    coordinates: [  0.762427573238267,  0.737572426761733,  0.718068405302383 ]
    mass: 1.007940
  - symbol: H  # 11
    coordinates: [  0.737572426761733,  0.237572426761733,  0.281931594697617 ]
    mass: 1.007940
  - symbol: H  # 12
    coordinates: [  0.237572426761733,  0.262427573238267,  0.718068405302383 ]
    mass: 1.007940
  - symbol: H  # 13
    coordinates: [  0.145374717830765,  0.645374717830758,  0.957293965318042 ]
    mass: 1.007940
  - symbol: H  # 14
    coordinates: [  0.645374717830758,  0.854625282169242,  0.042706034681957 ]
    mass: 1.007940
  - symbol: H  # 15
    coordinates: [  0.854625282169242,  0.354625282169241,  0.957293965318042 ]
    mass: 1.007940
  - symbol: H  # 16
    coordinates: [  0.354625282169241,  0.145374717830765,  0.042706034681957 ]
    mass: 1.007940
  reciprocal_lattice: # without 2pi
  - [     0.181176938654448,     0.000000000000000,     0.000000000000000 ] # a*
  - [     0.000000000000000,     0.181176938654448,     0.000000000000000 ] # b*
  - [     0.000000000000000,     0.000000000000000,     0.215070605794173 ] # c*

unit_cell:
  lattice:
  - [     5.519466260036882,     0.000000000000000,     0.000000000000000 ] # a
  - [     0.000000000000000,     5.519466260036882,     0.000000000000000 ] # b
  - [     0.000000000000000,     0.000000000000000,     4.649635854734237 ] # c
  points:
  - symbol: C  # 1
    coordinates: [ -0.000000000000000,  0.500000000000000,  0.326599652230694 ]
    mass: 12.010700
    reduced_to: 1
  - symbol: C  # 2
    coordinates: [  0.500000000000000,  0.000000000000000,  0.673400347769305 ]
    mass: 12.010700
    reduced_to: 2
  - symbol: O  # 3
    coordinates: [ -0.000000000000000,  0.500000000000000,  0.601805400372136 ]
    mass: 15.999400
    reduced_to: 3
  - symbol: O  # 4
    coordinates: [  0.500000000000000,  0.000000000000000,  0.398194599627863 ]
    mass: 15.999400
    reduced_to: 4
  - symbol: N  # 5
    coordinates: [  0.147636239740942,  0.647636239740940,  0.176562033244404 ]
    mass: 14.006700
    reduced_to: 5
  - symbol: N  # 6
    coordinates: [  0.647636239740940,  0.852363760259060,  0.823437966755598 ]
    mass: 14.006700
    reduced_to: 6
  - symbol: N  # 7
    coordinates: [  0.852363760259060,  0.352363760259058,  0.176562033244404 ]
    mass: 14.006700
    reduced_to: 7
  - symbol: N  # 8
    coordinates: [  0.352363760259058,  0.147636239740942,  0.823437966755598 ]
    mass: 14.006700
    reduced_to: 8
  - symbol: H  # 9
    coordinates: [  0.262427573238267,  0.762427573238267,  0.281931594697617 ]
    mass: 1.007940
    reduced_to: 9
  - symbol: H  # 10
    coordinates: [  0.762427573238267,  0.737572426761733,  0.718068405302383 ]
    mass: 1.007940
    reduced_to: 10
  - symbol: H  # 11
    coordinates: [  0.737572426761733,  0.237572426761733,  0.281931594697617 ]
    mass: 1.007940
    reduced_to: 11
  - symbol: H  # 12
    coordinates: [  0.237572426761733,  0.262427573238267,  0.718068405302383 ]
    mass: 1.007940
    reduced_to: 12
  - symbol: H  # 13
    coordinates: [  0.145374717830765,  0.645374717830758,  0.957293965318042 ]
    mass: 1.007940
    reduced_to: 13
  - symbol: H  # 14
    coordinates: [  0.645374717830758,  0.854625282169242,  0.042706034681957 ]
    mass: 1.007940
    reduced_to: 14
  - symbol: H  # 15
    coordinates: [  0.854625282169242,  0.354625282169241,  0.957293965318042 ]
    mass: 1.007940
    reduced_to: 15
  - symbol: H  # 16
    coordinates: [  0.354625282169241,  0.145374717830765,  0.042706034681957 ]
    mass: 1.007940
    reduced_to: 16

supercell:
  lattice:
  - [     5.519466260036882,     0.000000000000000,     0.000000000000000 ] # a
  - [     0.000000000000000,     5.519466260036882,     0.000000000000000 ] # b
  - [     0.000000000000000,     0.000000000000000,     4.649635854734237 ] # c
  points:
  - symbol: C  # 1
    coordinates: [  0.000000000000000,  0.500000000000000,  0.326599652230694 ]
    mass: 12.010700
    reduced_to: 1
  - symbol: C  # 2
    coordinates: [  0.500000000000000,  0.000000000000000,  0.673400347769305 ]
    mass: 12.010700
    reduced_to: 2
  - symbol: O  # 3
    coordinates: [  0.000000000000000,  0.500000000000000,  0.601805400372136 ]
    mass: 15.999400
    reduced_to: 3
  - symbol: O  # 4
    coordinates: [  0.500000000000000,  0.000000000000000,  0.398194599627863 ]
    mass: 15.999400
    reduced_to: 4
  - symbol: N  # 5
    coordinates: [  0.147636239740942,  0.647636239740940,  0.176562033244404 ]
    mass: 14.006700
    reduced_to: 5
  - symbol: N  # 6
    coordinates: [  0.647636239740940,  0.852363760259060,  0.823437966755598 ]
    mass: 14.006700
    reduced_to: 6
  - symbol: N  # 7
    coordinates: [  0.852363760259060,  0.352363760259058,  0.176562033244404 ]
    mass: 14.006700
    reduced_to: 7
  - symbol: N  # 8
    coordinates: [  0.352363760259058,  0.147636239740942,  0.823437966755598 ]
    mass: 14.006700
    reduced_to: 8
  - symbol: H  # 9
    coordinates: [  0.262427573238267,  0.762427573238267,  0.281931594697617 ]
    mass: 1.007940
    reduced_to: 9
  - symbol: H  # 10
    coordinates: [  0.762427573238267,  0.737572426761733,  0.718068405302383 ]
    mass: 1.007940
    reduced_to: 10
  - symbol: H  # 11
    coordinates: [  0.737572426761733,  0.237572426761733,  0.281931594697617 ]
    mass: 1.007940
    reduced_to: 11
  - symbol: H  # 12
    coordinates: [  0.237572426761733,  0.262427573238267,  0.718068405302383 ]
    mass: 1.007940
    reduced_to: 12
  - symbol: H  # 13
    coordinates: [  0.145374717830765,  0.645374717830758,  0.957293965318042 ]
    mass: 1.007940
    reduced_to: 13
  - symbol: H  # 14
    coordinates: [  0.645374717830758,  0.854625282169242,  0.042706034681957 ]
    mass: 1.007940
    reduced_to: 14
  - symbol: H  # 15
    coordinates: [  0.854625282169242,  0.354625282169241,  0.957293965318042 ]
    mass: 1.007940
    reduced_to: 15
  - symbol: H  # 16
    coordinates: [  0.354625282169241,  0.145374717830765,  0.042706034681957 ]
    mass: 1.007940
    reduced_to: 16
