nqpoint: 1      
natom:   16     
reciprocal_lattice:
- [   0.18117694,   0.00000000,   0.00000000 ] # a*
- [   0.00000000,   0.18117694,   0.00000000 ] # b*
- [   0.00000000,   0.00000000,   0.21507061 ] # c*
phonon:
- q-position: [    0.0000000,    0.0000000,    0.0000000 ]
  dynamical_matrix:
  - [    3.7762742272,   -0.0000000000,    2.1005718497,    0.0000000000,    0.0000000000,    0.0000000000,   -0.0346638388,    0.0000000000,    0.0000000000,    0.0000000000,   -0.0000000000,    0.0000000000,   -0.6408868706,    0.0000000000,   -0.1056324426,    0.0000000000,   -0.0000000000,    0.0000000000,    0.0499866735,    0.0000000000,    0.0280179327,    0.0000000000,    0.0000000000,    0.0000000000,   -1.3084262139,    0.0000000000,   -0.9354545581,    0.0000000000,    0.4693685695,    0.0000000000,    0.0048234855,    0.0000000000,    0.0132887629,    0.0000000000,    0.0056268805,    0.0000000000,   -1.3084262139,    0.0000000000,   -0.9354545581,    0.0000000000,   -0.4693685695,    0.0000000000,    0.0048234855,    0.0000000000,    0.0132887629,    0.0000000000,   -0.0056268805,    0.0000000000,   -0.4989395608,    0.0000000000,   -0.3493396318,    0.0000000000,    0.2878814431,    0.0000000000,    0.0520080542,    0.0000000000,    0.0326918542,    0.0000000000,    0.0611363677,    0.0000000000,   -0.4989395608,    0.0000000000,   -0.3493396318,    0.0000000000,   -0.2878814431,    0.0000000000,    0.0520080542,    0.0000000000,    0.0326918542,    0.0000000000,   -0.0611363677,    0.0000000000,    0.0616336288,    0.0000000000,    0.2775340394,    0.0000000000,    0.2391875187,    0.0000000000,   -0.0350633606,    0.0000000000,    0.0063628387,    0.0000000000,   -0.0135409937,    0.0000000000,    0.0616336288,    0.0000000000,    0.2775340394,    0.0000000000,   -0.2391875187,    0.0000000000,   -0.0350633606,    0.0000000000,    0.0063628387,    0.0000000000,    0.0135409937,    0.0000000000 ]
  - [    2.1005718497,   -0.0000000000,    3.7762742272,   -0.0000000000,    0.0000000000,    0.0000000000,    0.0000000000,    0.0000000000,   -0.0346638388,    0.0000000000,    0.0000000000,    0.0000000000,   -0.1056324426,    0.0000000000,   -0.6408868706,    0.0000000000,    0.0000000000,    0.0000000000,    0.0280179327,    0.0000000000,    0.0499866735,    0.0000000000,   -0.0000000000,    0.0000000000,   -0.9354545581,    0.0000000000,   -1.3084262139,    0.0000000000,    0.4693685695,    0.0000000000,    0.0132887629,    0.0000000000,    0.0048234855,    0.0000000000,   -0.0056268805,    0.0000000000,   -0.9354545581,    0.0000000000,   -1.3084262139,    0.0000000000,   -0.4693685695,    0.0000000000,    0.0132887629,    0.0000000000,    0.0048234855,    0.0000000000,    0.0056268805,    0.0000000000,   -0.3493396318,    0.0000000000,   -0.4989395608,    0.0000000000,    0.2878814431,    0.0000000000,    0.0326918542,    0.0000000000,    0.0520080542,    0.0000000000,   -0.0611363677,    0.0000000000,   -0.3493396318,    0.0000000000,   -0.4989395608,    0.0000000000,   -0.2878814431,    0.0000000000,    0.0326918542,    0.0000000000,    0.0520080542,    0.0000000000,    0.0611363677,    0.0000000000,    0.2775340394,    0.0000000000,    0.0616336288,    0.0000000000,    0.2391875187,    0.0000000000,    0.0063628387,    0.0000000000,   -0.0350633606,    0.0000000000,    0.0135409937,    0.0000000000,    0.2775340394,    0.0000000000,    0.0616336288,    0.0000000000,   -0.2391875187,    0.0000000000,    0.0063628387,    0.0000000000,   -0.0350633606,    0.0000000000,   -0.0135409937,    0.0000000000 ]
  - [    0.0000000000,   -0.0000000000,    0.0000000000,   -0.0000000000,    6.3711738344,   -0.0000000000,   -0.0000000000,    0.0000000000,    0.0000000000,    0.0000000000,    0.1734078495,    0.0000000000,   -0.0000000000,    0.0000000000,   -0.0000000000,    0.0000000000,   -2.8911998278,    0.0000000000,    0.0000000000,    0.0000000000,    0.0000000000,    0.0000000000,   -0.0902180687,    0.0000000000,    0.4457008829,    0.0000000000,    0.4457008829,    0.0000000000,   -1.2830818424,    0.0000000000,   -0.0470853369,    0.0000000000,    0.0470853369,    0.0000000000,    0.0121830418,    0.0000000000,   -0.4457008829,    0.0000000000,   -0.4457008829,    0.0000000000,   -1.2830818424,    0.0000000000,    0.0470853369,    0.0000000000,   -0.0470853369,    0.0000000000,    0.0121830418,    0.0000000000,   -0.1565868494,    0.0000000000,   -0.1565868494,    0.0000000000,    0.5670778058,    0.0000000000,    0.4311232335,    0.0000000000,   -0.4311232335,    0.0000000000,   -0.3079422687,    0.0000000000,    0.1565868494,    0.0000000000,    0.1565868494,    0.0000000000,    0.5670778058,    0.0000000000,   -0.4311232335,    0.0000000000,    0.4311232335,    0.0000000000,   -0.3079422687,    0.0000000000,    0.4845485448,    0.0000000000,    0.4845485448,    0.0000000000,   -0.8335667371,    0.0000000000,   -0.0691612283,    0.0000000000,    0.0691612283,    0.0000000000,   -0.0438621663,    0.0000000000,   -0.4845485448,    0.0000000000,   -0.4845485448,    0.0000000000,   -0.8335667371,    0.0000000000,    0.0691612283,    0.0000000000,   -0.0691612283,    0.0000000000,   -0.0438621663,    0.0000000000 ]
  - [   -0.0346638388,   -0.0000000000,    0.0000000000,   -0.0000000000,   -0.0000000000,   -0.0000000000,    3.7762742272,   -0.0000000000,   -2.1005718497,    0.0000000000,    0.0000000000,    0.0000000000,    0.0499866735,    0.0000000000,   -0.0280179327,    0.0000000000,    0.0000000000,    0.0000000000,   -0.6408868706,    0.0000000000,    0.1056324426,    0.0000000000,    0.0000000000,    0.0000000000,    0.0048234855,    0.0000000000,   -0.0132887629,    0.0000000000,   -0.0056268805,    0.0000000000,   -1.3084262139,    0.0000000000,    0.9354545581,    0.0000000000,   -0.4693685695,    0.0000000000,    0.0048234855,    0.0000000000,   -0.0132887629,    0.0000000000,    0.0056268805,    0.0000000000,   -1.3084262139,    0.0000000000,    0.9354545581,    0.0000000000,    0.4693685695,    0.0000000000,    0.0520080542,    0.0000000000,   -0.0326918542,    0.0000000000,   -0.0611363677,    0.0000000000,   -0.4989395608,    0.0000000000,    0.3493396318,    0.0000000000,   -0.2878814431,    0.0000000000,    0.0520080542,    0.0000000000,   -0.0326918542,    0.0000000000,    0.0611363677,    0.0000000000,   -0.4989395608,    0.0000000000,    0.3493396318,    0.0000000000,    0.2878814431,    0.0000000000,   -0.0350633606,    0.0000000000,   -0.0063628387,    0.0000000000,    0.0135409937,    0.0000000000,    0.0616336288,    0.0000000000,   -0.2775340394,    0.0000000000,   -0.2391875187,    0.0000000000,   -0.0350633606,    0.0000000000,   -0.0063628387,    0.0000000000,   -0.0135409937,    0.0000000000,    0.0616336288,    0.0000000000,   -0.2775340394,    0.0000000000,    0.2391875187,    0.0000000000 ]
  - [    0.0000000000,   -0.0000000000,   -0.0346638388,   -0.0000000000,    0.0000000000,   -0.0000000000,   -2.1005718497,   -0.0000000000,    3.7762742272,   -0.0000000000,   -0.0000000000,    0.0000000000,   -0.0280179327,    0.0000000000,    0.0499866735,    0.0000000000,   -0.0000000000,    0.0000000000,    0.1056324426,    0.0000000000,   -0.6408868706,    0.0000000000,    0.0000000000,    0.0000000000,   -0.0132887629,    0.0000000000,    0.0048234855,    0.0000000000,   -0.0056268805,    0.0000000000,    0.9354545581,    0.0000000000,   -1.3084262139,    0.0000000000,    0.4693685695,    0.0000000000,   -0.0132887629,    0.0000000000,    0.0048234855,    0.0000000000,    0.0056268805,    0.0000000000,    0.9354545581,    0.0000000000,   -1.3084262139,    0.0000000000,   -0.4693685695,    0.0000000000,   -0.0326918542,    0.0000000000,    0.0520080542,    0.0000000000,   -0.0611363677,    0.0000000000,    0.3493396318,    0.0000000000,   -0.4989395608,    0.0000000000,    0.2878814431,    0.0000000000,   -0.0326918542,    0.0000000000,    0.0520080542,    0.0000000000,    0.0611363677,    0.0000000000,    0.3493396318,    0.0000000000,   -0.4989395608,    0.0000000000,   -0.2878814431,    0.0000000000,   -0.0063628387,    0.0000000000,   -0.0350633606,    0.0000000000,    0.0135409937,    0.0000000000,   -0.2775340394,    0.0000000000,    0.0616336288,    0.0000000000,    0.2391875187,    0.0000000000,   -0.0063628387,    0.0000000000,   -0.0350633606,    0.0000000000,   -0.0135409937,    0.0000000000,   -0.2775340394,    0.0000000000,    0.0616336288,    0.0000000000,   -0.2391875187,    0.0000000000 ]
  - [   -0.0000000000,   -0.0000000000,    0.0000000000,   -0.0000000000,    0.1734078495,   -0.0000000000,    0.0000000000,   -0.0000000000,   -0.0000000000,   -0.0000000000,    6.3711738344,   -0.0000000000,    0.0000000000,    0.0000000000,   -0.0000000000,    0.0000000000,   -0.0902180687,    0.0000000000,   -0.0000000000,    0.0000000000,    0.0000000000,    0.0000000000,   -2.8911998278,    0.0000000000,    0.0470853369,    0.0000000000,    0.0470853369,    0.0000000000,    0.0121830418,    0.0000000000,   -0.4457008829,    0.0000000000,    0.4457008829,    0.0000000000,   -1.2830818424,    0.0000000000,   -0.0470853369,    0.0000000000,   -0.0470853369,    0.0000000000,    0.0121830418,    0.0000000000,    0.4457008829,    0.0000000000,   -0.4457008829,    0.0000000000,   -1.2830818424,    0.0000000000,   -0.4311232335,    0.0000000000,   -0.4311232335,    0.0000000000,   -0.3079422687,    0.0000000000,    0.1565868494,    0.0000000000,   -0.1565868494,    0.0000000000,    0.5670778058,    0.0000000000,    0.4311232335,    0.0000000000,    0.4311232335,    0.0000000000,   -0.3079422687,    0.0000000000,   -0.1565868494,    0.0000000000,    0.1565868494,    0.0000000000,    0.5670778058,    0.0000000000,    0.0691612283,    0.0000000000,    0.0691612283,    0.0000000000,   -0.0438621663,    0.0000000000,   -0.4845485448,    0.0000000000,    0.4845485448,    0.0000000000,   -0.8335667371,    0.0000000000,   -0.0691612283,    0.0000000000,   -0.0691612283,    0.0000000000,   -0.0438621663,    0.0000000000,    0.4845485448,    0.0000000000,   -0.4845485448,    0.0000000000,   -0.8335667371,    0.0000000000 ]
  - [   -0.6408868706,   -0.0000000000,   -0.1056324426,   -0.0000000000,   -0.0000000000,   -0.0000000000,    0.0499866735,   -0.0000000000,   -0.0280179327,   -0.0000000000,    0.0000000000,   -0.0000000000,    0.4697068140,   -0.0000000000,    0.1550492114,    0.0000000000,    0.0000000000,    0.0000000000,   -0.0179715242,    0.0000000000,    0.0000000000,    0.0000000000,   -0.0000000000,    0.0000000000,    0.0756854878,    0.0000000000,   -0.0323935546,    0.0000000000,    0.2383908068,    0.0000000000,   -0.0583932981,    0.0000000000,    0.0572309776,    0.0000000000,    0.0149844267,    0.0000000000,    0.0756854878,    0.0000000000,   -0.0323935546,    0.0000000000,   -0.2383908068,    0.0000000000,   -0.0583932981,    0.0000000000,    0.0572309776,    0.0000000000,   -0.0149844267,    0.0000000000,    0.0339329544,    0.0000000000,    0.1140214343,    0.0000000000,   -0.0359301171,    0.0000000000,    0.0657538647,    0.0000000000,   -0.1456871164,    0.0000000000,   -0.1031470529,    0.0000000000,    0.0339329544,    0.0000000000,    0.1140214343,    0.0000000000,    0.0359301171,    0.0000000000,    0.0657538647,    0.0000000000,   -0.1456871164,    0.0000000000,    0.1031470529,    0.0000000000,   -0.0339262058,    0.0000000000,   -0.1653137540,    0.0000000000,    0.0065607163,    0.0000000000,   -0.0115847201,    0.0000000000,    0.0261283844,    0.0000000000,   -0.0056623404,    0.0000000000,   -0.0339262058,    0.0000000000,   -0.1653137540,    0.0000000000,   -0.0065607163,    0.0000000000,   -0.0115847201,    0.0000000000,    0.0261283844,    0.0000000000,    0.0056623404,    0.0000000000 ]
  - [   -0.1056324426,   -0.0000000000,   -0.6408868706,   -0.0000000000,   -0.0000000000,   -0.0000000000,   -0.0280179327,   -0.0000000000,    0.0499866735,   -0.0000000000,   -0.0000000000,   -0.0000000000,    0.1550492114,   -0.0000000000,    0.4697068140,   -0.0000000000,    0.0000000000,    0.0000000000,    0.0000000000,    0.0000000000,   -0.0179715242,    0.0000000000,    0.0000000000,    0.0000000000,   -0.0323935546,    0.0000000000,    0.0756854878,    0.0000000000,    0.2383908068,    0.0000000000,    0.0572309776,    0.0000000000,   -0.0583932981,    0.0000000000,   -0.0149844267,    0.0000000000,   -0.0323935546,    0.0000000000,    0.0756854878,    0.0000000000,   -0.2383908068,    0.0000000000,    0.0572309776,    0.0000000000,   -0.0583932981,    0.0000000000,    0.0149844267,    0.0000000000,    0.1140214343,    0.0000000000,    0.0339329544,    0.0000000000,   -0.0359301171,    0.0000000000,   -0.1456871164,    0.0000000000,    0.0657538647,    0.0000000000,    0.1031470529,    0.0000000000,    0.1140214343,    0.0000000000,    0.0339329544,    0.0000000000,    0.0359301171,    0.0000000000,   -0.1456871164,    0.0000000000,    0.0657538647,    0.0000000000,   -0.1031470529,    0.0000000000,   -0.1653137540,    0.0000000000,   -0.0339262058,    0.0000000000,    0.0065607163,    0.0000000000,    0.0261283844,    0.0000000000,   -0.0115847201,    0.0000000000,    0.0056623404,    0.0000000000,   -0.1653137540,    0.0000000000,   -0.0339262058,    0.0000000000,   -0.0065607163,    0.0000000000,    0.0261283844,    0.0000000000,   -0.0115847201,    0.0000000000,   -0.0056623404,    0.0000000000 ]
  - [   -0.0000000000,   -0.0000000000,    0.0000000000,   -0.0000000000,   -2.8911998278,   -0.0000000000,    0.0000000000,   -0.0000000000,   -0.0000000000,   -0.0000000000,   -0.0902180687,   -0.0000000000,    0.0000000000,   -0.0000000000,    0.0000000000,   -0.0000000000,    3.4087417365,   -0.0000000000,   -0.0000000000,    0.0000000000,    0.0000000000,    0.0000000000,    0.0339193732,    0.0000000000,    0.1398883571,    0.0000000000,    0.1398883571,    0.0000000000,   -0.5444199183,    0.0000000000,    0.0404219286,    0.0000000000,   -0.0404219286,    0.0000000000,   -0.0004440411,    0.0000000000,   -0.1398883571,    0.0000000000,   -0.1398883571,    0.0000000000,   -0.5444199183,    0.0000000000,   -0.0404219286,    0.0000000000,    0.0404219286,    0.0000000000,   -0.0004440411,    0.0000000000,   -0.0725850122,    0.0000000000,   -0.0725850122,    0.0000000000,   -0.1023143940,    0.0000000000,   -0.2095052867,    0.0000000000,    0.2095052867,    0.0000000000,    0.0465558085,    0.0000000000,    0.0725850122,    0.0000000000,    0.0725850122,    0.0000000000,   -0.1023143940,    0.0000000000,    0.2095052867,    0.0000000000,   -0.2095052867,    0.0000000000,    0.0465558085,    0.0000000000,    0.1780056559,    0.0000000000,    0.1780056559,    0.0000000000,    0.3590501680,    0.0000000000,    0.0280376891,    0.0000000000,   -0.0280376891,    0.0000000000,    0.0166094552,    0.0000000000,   -0.1780056559,    0.0000000000,   -0.1780056559,    0.0000000000,    0.3590501680,    0.0000000000,   -0.0280376891,    0.0000000000,    0.0280376891,    0.0000000000,    0.0166094552,    0.0000000000 ]
  - [    0.0499866735,   -0.0000000000,    0.0280179327,   -0.0000000000,    0.0000000000,   -0.0000000000,   -0.6408868706,   -0.0000000000,    0.1056324426,   -0.0000000000,   -0.0000000000,   -0.0000000000,   -0.0179715242,   -0.0000000000,    0.0000000000,   -0.0000000000,   -0.0000000000,   -0.0000000000,    0.4697068140,   -0.0000000000,   -0.1550492114,    0.0000000000,    0.0000000000,    0.0000000000,   -0.0583932981,    0.0000000000,   -0.0572309776,    0.0000000000,   -0.0149844267,    0.0000000000,    0.0756854878,    0.0000000000,    0.0323935546,    0.0000000000,   -0.2383908068,    0.0000000000,   -0.0583932981,    0.0000000000,   -0.0572309776,    0.0000000000,    0.0149844267,    0.0000000000,    0.0756854878,    0.0000000000,    0.0323935546,    0.0000000000,    0.2383908068,    0.0000000000,    0.0657538647,    0.0000000000,    0.1456871164,    0.0000000000,    0.1031470529,    0.0000000000,    0.0339329544,    0.0000000000,   -0.1140214343,    0.0000000000,    0.0359301171,    0.0000000000,    0.0657538647,    0.0000000000,    0.1456871164,    0.0000000000,   -0.1031470529,    0.0000000000,    0.0339329544,    0.0000000000,   -0.1140214343,    0.0000000000,   -0.0359301171,    0.0000000000,   -0.0115847201,    0.0000000000,   -0.0261283844,    0.0000000000,    0.0056623404,    0.0000000000,   -0.0339262058,    0.0000000000,    0.1653137540,    0.0000000000,   -0.0065607163,    0.0000000000,   -0.0115847201,    0.0000000000,   -0.0261283844,    0.0000000000,   -0.0056623404,    0.0000000000,   -0.0339262058,    0.0000000000,    0.1653137540,    0.0000000000,    0.0065607163,    0.0000000000 ]
  - [    0.0280179327,   -0.0000000000,    0.0499866735,   -0.0000000000,    0.0000000000,   -0.0000000000,    0.1056324426,   -0.0000000000,   -0.6408868706,   -0.0000000000,    0.0000000000,   -0.0000000000,    0.0000000000,   -0.0000000000,   -0.0179715242,   -0.0000000000,    0.0000000000,   -0.0000000000,   -0.1550492114,   -0.0000000000,    0.4697068140,   -0.0000000000,   -0.0000000000,    0.0000000000,   -0.0572309776,    0.0000000000,   -0.0583932981,    0.0000000000,   -0.0149844267,    0.0000000000,    0.0323935546,    0.0000000000,    0.0756854878,    0.0000000000,    0.2383908068,    0.0000000000,   -0.0572309776,    0.0000000000,   -0.0583932981,    0.0000000000,    0.0149844267,    0.0000000000,    0.0323935546,    0.0000000000,    0.0756854878,    0.0000000000,   -0.2383908068,    0.0000000000,    0.1456871164,    0.0000000000,    0.0657538647,    0.0000000000,    0.1031470529,    0.0000000000,   -0.1140214343,    0.0000000000,    0.0339329544,    0.0000000000,   -0.0359301171,    0.0000000000,    0.1456871164,    0.0000000000,    0.0657538647,    0.0000000000,   -0.1031470529,    0.0000000000,   -0.1140214343,    0.0000000000,    0.0339329544,    0.0000000000,    0.0359301171,    0.0000000000,   -0.0261283844,    0.0000000000,   -0.0115847201,    0.0000000000,    0.0056623404,    0.0000000000,    0.1653137540,    0.0000000000,   -0.0339262058,    0.0000000000,    0.0065607163,    0.0000000000,   -0.0261283844,    0.0000000000,   -0.0115847201,    0.0000000000,   -0.0056623404,    0.0000000000,    0.1653137540,    0.0000000000,   -0.0339262058,    0.0000000000,   -0.0065607163,    0.0000000000 ]
  - [    0.0000000000,   -0.0000000000,   -0.0000000000,   -0.0000000000,   -0.0902180687,   -0.0000000000,    0.0000000000,   -0.0000000000,    0.0000000000,   -0.0000000000,   -2.8911998278,   -0.0000000000,   -0.0000000000,   -0.0000000000,    0.0000000000,   -0.0000000000,    0.0339193732,   -0.0000000000,    0.0000000000,   -0.0000000000,   -0.0000000000,   -0.0000000000,    3.4087417365,   -0.0000000000,   -0.0404219286,    0.0000000000,   -0.0404219286,    0.0000000000,   -0.0004440411,    0.0000000000,   -0.1398883571,    0.0000000000,    0.1398883571,    0.0000000000,   -0.5444199183,    0.0000000000,    0.0404219286,    0.0000000000,    0.0404219286,    0.0000000000,   -0.0004440411,    0.0000000000,    0.1398883571,    0.0000000000,   -0.1398883571,    0.0000000000,   -0.5444199183,    0.0000000000,    0.2095052867,    0.0000000000,    0.2095052867,    0.0000000000,    0.0465558085,    0.0000000000,    0.0725850122,    0.0000000000,   -0.0725850122,    0.0000000000,   -0.1023143940,    0.0000000000,   -0.2095052867,    0.0000000000,   -0.2095052867,    0.0000000000,    0.0465558085,    0.0000000000,   -0.0725850122,    0.0000000000,    0.0725850122,    0.0000000000,   -0.1023143940,    0.0000000000,   -0.0280376891,    0.0000000000,   -0.0280376891,    0.0000000000,    0.0166094552,    0.0000000000,   -0.1780056559,    0.0000000000,    0.1780056559,    0.0000000000,    0.3590501680,    0.0000000000,    0.0280376891,    0.0000000000,    0.0280376891,    0.0000000000,    0.0166094552,    0.0000000000,    0.1780056559,    0.0000000000,   -0.1780056559,    0.0000000000,    0.3590501680,    0.0000000000 ]
  - [   -1.3084262139,   -0.0000000000,   -0.9354545581,   -0.0000000000,    0.4457008829,   -0.0000000000,    0.0048234855,   -0.0000000000,   -0.0132887629,   -0.0000000000,    0.0470853369,   -0.0000000000,    0.0756854878,   -0.0000000000,   -0.0323935546,   -0.0000000000,    0.1398883571,   -0.0000000000,   -0.0583932981,   -0.0000000000,   -0.0572309776,   -0.0000000000,   -0.0404219286,   -0.0000000000,    2.7994776785,   -0.0000000000,    2.6071919867,    0.0000000000,    0.1725366789,    0.0000000000,   -0.0369917968,    0.0000000000,   -0.0031665917,    0.0000000000,   -0.0076485004,    0.0000000000,   -0.2423032549,    0.0000000000,   -0.3242309752,    0.0000000000,    0.0682015571,    0.0000000000,    0.0067958905,    0.0000000000,    0.0031665917,    0.0000000000,    0.0012749434,    0.0000000000,   -4.1442673974,    0.0000000000,   -4.0282816267,    0.0000000000,   -2.6613256197,    0.0000000000,    0.0688738349,    0.0000000000,   -0.0484204269,    0.0000000000,   -0.0127168360,    0.0000000000,    0.1438170568,    0.0000000000,    0.0026634242,    0.0000000000,   -0.1285650774,    0.0000000000,   -0.1031116443,    0.0000000000,    0.0242922520,    0.0000000000,   -0.0314820336,    0.0000000000,   -1.0274530540,    0.0000000000,   -0.8418910309,    0.0000000000,   -0.1973317233,    0.0000000000,    0.0626011815,    0.0000000000,    0.0336835004,    0.0000000000,   -0.0032030288,    0.0000000000,    0.0001325391,    0.0000000000,    0.0078926648,    0.0000000000,    0.0666380357,    0.0000000000,    0.0111801274,    0.0000000000,   -0.0294225540,    0.0000000000,   -0.0030432100,    0.0000000000 ]
  - [   -0.9354545581,   -0.0000000000,   -1.3084262139,   -0.0000000000,    0.4457008829,   -0.0000000000,   -0.0132887629,   -0.0000000000,    0.0048234855,   -0.0000000000,    0.0470853369,   -0.0000000000,   -0.0323935546,   -0.0000000000,    0.0756854878,   -0.0000000000,    0.1398883571,   -0.0000000000,   -0.0572309776,   -0.0000000000,   -0.0583932981,   -0.0000000000,   -0.0404219286,   -0.0000000000,    2.6071919867,   -0.0000000000,    2.7994776785,   -0.0000000000,    0.1725366789,    0.0000000000,    0.0031665917,    0.0000000000,    0.0067958905,    0.0000000000,    0.0012749434,    0.0000000000,   -0.3242309752,    0.0000000000,   -0.2423032549,    0.0000000000,    0.0682015571,    0.0000000000,   -0.0031665917,    0.0000000000,   -0.0369917968,    0.0000000000,   -0.0076485004,    0.0000000000,   -4.0282816267,    0.0000000000,   -4.1442673974,    0.0000000000,   -2.6613256197,    0.0000000000,    0.0242922520,    0.0000000000,   -0.1031116443,    0.0000000000,   -0.0314820336,    0.0000000000,    0.0026634242,    0.0000000000,    0.1438170568,    0.0000000000,   -0.1285650774,    0.0000000000,   -0.0484204269,    0.0000000000,    0.0688738349,    0.0000000000,   -0.0127168360,    0.0000000000,   -0.8418910309,    0.0000000000,   -1.0274530540,    0.0000000000,   -0.1973317233,    0.0000000000,   -0.0294225540,    0.0000000000,    0.0111801274,    0.0000000000,   -0.0030432100,    0.0000000000,    0.0078926648,    0.0000000000,    0.0001325391,    0.0000000000,    0.0666380357,    0.0000000000,    0.0336835004,    0.0000000000,    0.0626011815,    0.0000000000,   -0.0032030288,    0.0000000000 ]
  - [    0.4693685695,   -0.0000000000,    0.4693685695,   -0.0000000000,   -1.2830818424,   -0.0000000000,   -0.0056268805,   -0.0000000000,   -0.0056268805,   -0.0000000000,    0.0121830418,   -0.0000000000,    0.2383908068,   -0.0000000000,    0.2383908068,   -0.0000000000,   -0.5444199183,   -0.0000000000,   -0.0149844267,   -0.0000000000,   -0.0149844267,   -0.0000000000,   -0.0004440411,   -0.0000000000,    0.1725366789,   -0.0000000000,    0.1725366789,   -0.0000000000,    5.4885056080,   -0.0000000000,    0.0076485004,    0.0000000000,    0.0012749434,    0.0000000000,   -0.0075537778,    0.0000000000,   -0.0682015571,    0.0000000000,   -0.0682015571,    0.0000000000,    0.1289865564,    0.0000000000,    0.0012749434,    0.0000000000,    0.0076485004,    0.0000000000,   -0.0075537778,    0.0000000000,   -2.6462962688,    0.0000000000,   -2.6462962688,    0.0000000000,   -3.9593133775,    0.0000000000,   -0.0584538114,    0.0000000000,    0.0989715932,    0.0000000000,    0.0368014300,    0.0000000000,   -0.0704376901,    0.0000000000,   -0.0704376901,    0.0000000000,   -0.0824722025,    0.0000000000,    0.0989715932,    0.0000000000,   -0.0584538114,    0.0000000000,    0.0368014300,    0.0000000000,   -0.1933109042,    0.0000000000,   -0.1933109042,    0.0000000000,  -10.4634439661,    0.0000000000,   -0.0016258665,    0.0000000000,   -0.0198374205,    0.0000000000,   -0.0038110986,    0.0000000000,   -0.0228836911,    0.0000000000,   -0.0228836911,    0.0000000000,    0.1126827388,    0.0000000000,   -0.0198374205,    0.0000000000,   -0.0016258665,    0.0000000000,   -0.0038110986,    0.0000000000 ]
  - [    0.0048234855,   -0.0000000000,    0.0132887629,   -0.0000000000,   -0.0470853369,   -0.0000000000,   -1.3084262139,   -0.0000000000,    0.9354545581,   -0.0000000000,   -0.4457008829,   -0.0000000000,   -0.0583932981,   -0.0000000000,    0.0572309776,   -0.0000000000,    0.0404219286,   -0.0000000000,    0.0756854878,   -0.0000000000,    0.0323935546,   -0.0000000000,   -0.1398883571,   -0.0000000000,   -0.0369917968,   -0.0000000000,    0.0031665917,   -0.0000000000,    0.0076485004,   -0.0000000000,    2.7994776785,   -0.0000000000,   -2.6071919867,    0.0000000000,   -0.1725366789,    0.0000000000,    0.0067958905,    0.0000000000,   -0.0031665917,    0.0000000000,   -0.0012749434,    0.0000000000,   -0.2423032549,    0.0000000000,    0.3242309752,    0.0000000000,   -0.0682015571,    0.0000000000,    0.0688738349,    0.0000000000,    0.0484204269,    0.0000000000,    0.0127168360,    0.0000000000,   -4.1442673974,    0.0000000000,    4.0282816267,    0.0000000000,    2.6613256197,    0.0000000000,   -0.1031116443,    0.0000000000,   -0.0242922520,    0.0000000000,    0.0314820336,    0.0000000000,    0.1438170568,    0.0000000000,   -0.0026634242,    0.0000000000,    0.1285650774,    0.0000000000,    0.0626011815,    0.0000000000,   -0.0336835004,    0.0000000000,    0.0032030288,    0.0000000000,   -1.0274530540,    0.0000000000,    0.8418910309,    0.0000000000,    0.1973317233,    0.0000000000,    0.0111801274,    0.0000000000,    0.0294225540,    0.0000000000,    0.0030432100,    0.0000000000,    0.0001325391,    0.0000000000,   -0.0078926648,    0.0000000000,   -0.0666380357,    0.0000000000 ]
  - [    0.0132887629,   -0.0000000000,    0.0048234855,   -0.0000000000,    0.0470853369,   -0.0000000000,    0.9354545581,   -0.0000000000,   -1.3084262139,   -0.0000000000,    0.4457008829,   -0.0000000000,    0.0572309776,   -0.0000000000,   -0.0583932981,   -0.0000000000,   -0.0404219286,   -0.0000000000,    0.0323935546,   -0.0000000000,    0.0756854878,   -0.0000000000,    0.1398883571,   -0.0000000000,   -0.0031665917,   -0.0000000000,    0.0067958905,   -0.0000000000,    0.0012749434,   -0.0000000000,   -2.6071919867,   -0.0000000000,    2.7994776785,   -0.0000000000,    0.1725366789,    0.0000000000,    0.0031665917,    0.0000000000,   -0.0369917968,    0.0000000000,   -0.0076485004,    0.0000000000,    0.3242309752,    0.0000000000,   -0.2423032549,    0.0000000000,    0.0682015571,    0.0000000000,   -0.0242922520,    0.0000000000,   -0.1031116443,    0.0000000000,   -0.0314820336,    0.0000000000,    4.0282816267,    0.0000000000,   -4.1442673974,    0.0000000000,   -2.6613256197,    0.0000000000,    0.0484204269,    0.0000000000,    0.0688738349,    0.0000000000,   -0.0127168360,    0.0000000000,   -0.0026634242,    0.0000000000,    0.1438170568,    0.0000000000,   -0.1285650774,    0.0000000000,    0.0294225540,    0.0000000000,    0.0111801274,    0.0000000000,   -0.0030432100,    0.0000000000,    0.8418910309,    0.0000000000,   -1.0274530540,    0.0000000000,   -0.1973317233,    0.0000000000,   -0.0336835004,    0.0000000000,    0.0626011815,    0.0000000000,   -0.0032030288,    0.0000000000,   -0.0078926648,    0.0000000000,    0.0001325391,    0.0000000000,    0.0666380357,    0.0000000000 ]
  - [    0.0056268805,   -0.0000000000,   -0.0056268805,   -0.0000000000,    0.0121830418,   -0.0000000000,   -0.4693685695,   -0.0000000000,    0.4693685695,   -0.0000000000,   -1.2830818424,   -0.0000000000,    0.0149844267,   -0.0000000000,   -0.0149844267,   -0.0000000000,   -0.0004440411,   -0.0000000000,   -0.2383908068,   -0.0000000000,    0.2383908068,   -0.0000000000,   -0.5444199183,   -0.0000000000,   -0.0076485004,   -0.0000000000,    0.0012749434,   -0.0000000000,   -0.0075537778,   -0.0000000000,   -0.1725366789,   -0.0000000000,    0.1725366789,   -0.0000000000,    5.4885056080,   -0.0000000000,   -0.0012749434,    0.0000000000,    0.0076485004,    0.0000000000,   -0.0075537778,    0.0000000000,    0.0682015571,    0.0000000000,   -0.0682015571,    0.0000000000,    0.1289865564,    0.0000000000,    0.0584538114,    0.0000000000,    0.0989715932,    0.0000000000,    0.0368014300,    0.0000000000,    2.6462962688,    0.0000000000,   -2.6462962688,    0.0000000000,   -3.9593133775,    0.0000000000,   -0.0989715932,    0.0000000000,   -0.0584538114,    0.0000000000,    0.0368014300,    0.0000000000,    0.0704376901,    0.0000000000,   -0.0704376901,    0.0000000000,   -0.0824722025,    0.0000000000,    0.0016258665,    0.0000000000,   -0.0198374205,    0.0000000000,   -0.0038110986,    0.0000000000,    0.1933109042,    0.0000000000,   -0.1933109042,    0.0000000000,  -10.4634439661,    0.0000000000,    0.0198374205,    0.0000000000,   -0.0016258665,    0.0000000000,   -0.0038110986,    0.0000000000,    0.0228836911,    0.0000000000,   -0.0228836911,    0.0000000000,    0.1126827388,    0.0000000000 ]