 PROCESS            0  OF            8  WORKING
 PROCESS            1  OF            8  WORKING
 PROCESS            7  OF            8  WORKING
 PROCESS            5  OF            8  WORKING
 PROCESS            3  OF            8  WORKING
 PROCESS            2  OF            8  WORKING

         
 *******************************************************************************
 *                                                                             *
 *                               CRYSTAL17                                     *
 *                      public : 1.0.2 - March 1st, 2018                       *
 *                       HTTP://WWW.CRYSTAL.UNITO.IT                           *
 *                                                                             *
 *                              MAIN AUTHORS                                   *
 *                                                                             *
 *  R. DOVESI(1,11), V.R. SAUNDERS(2), C. ROETTI(1,11), R. ORLANDO(1,11),      *
 *  C.M. ZICOVICH-WILSON(1,3), F. PASCALE(4), B. CIVALLERI(1,11),              *
 *  K. DOLL(5), N.M. HARRISON(2,6), I.J. BUSH(7), Ph. D'ARCO(8),               *
 *  M. LLUNELL(9), M. CAUSA'(10), Y. NOEL(8), L. MASCHIO(1,11), A. ERBA(1,11)  *
 *  M. RE'RAT(14), S. CASASSA(1,11)                                            *
 *                                                                             *
 *        CONTRIBUTIONS TO THE CODE HAVE ALSO BEEN GIVEN BY                    *
 *                                                                             *
 *  M. FERRABONE(1,11), M. DE LA PIERRE(1,11), M. FERRERO(1,11),               *
 *  J. BAIMA(1,11), E. ALBANESE(1,11), M.F. PEINTINGER(12), R. BAST(13),       *
 PROCESS            6  OF            8  WORKING
 *  B. KIRTMAN(15), V. LACIVITA(1,11), R. DEMICHELIS(1,16)                     *
 *  G. BRANDEBURG(17), S. SALUSTRO(1,11), G. SANSONE(1,11)                     *
 *  M.T. RUGGIERO(18)                                                          *
 *                                                                             *
 PROCESS            4  OF            8  WORKING
 * (1) THEORETICAL CHEMISTRY GROUP - UNIVERSITA' DI TORINO - TORINO (ITALY)    *
 * (2) COMPUTATIONAL SCIENCE & ENGINEERING DEPARTMENT - STFC DARESBURY (UK)    *
 * (3) UNIVERSIDAD AUTONOMA DEL ESTADO DE MORELOS - CUERNAVACA (MEXICO)        *
 * (4) UNIVERSITE' DE LORRAINE - NANCY (FRANCE)                                *
 * (5) UNIVERSITAET STUTTGART- STUTTGART (GERMANY)                             *
 * (6) IMPERIAL COLLEGE - LONDON (UK)                                          *
 * (7) OXFORD E-RESEARCH CENTRE - OXFORD (UK)                                  *
 * (8) UPMC - SORBONNE UNIVERSITES - PARIS (FRANCE)                            *
 * (9) UNIVERSIDAD DE BARCELONA - BARCELONA (SPAIN)                            *
 *(10) UNIVERSITA' DI NAPOLI "FEDERICO II" - NAPOLI (ITALY)                    *
 *(11) NIS - NANOSTRUCTURED INTERFACES AND SURFACES - TORINO (ITALY)           *
 *(12) MPI FUER CHEMISCHE ENERGIEKONVERSION - MUELHEIM AN DER RUHR (GERMANY)   *
 *(13) UNIVERSITY OF TROMSO - TROMSO (NORWAY)                                  *
 *(14) UNIVERSITE' DE PAU ET DES PAYS DE L'ADOUR - PAU (FRANCE)                *
 *(15) UNIVERSITY OF CALIFORNIA SANTA BARBARA - SANTA BARBARA (USA)            *
 *(16) CURTIN UNIVERSITY - PERTH (AUSTRALIA)                                   *
 *(17) UNIVERSITY COLLEGE LONDON - LONDON (UK)                                 *
 *(18) CAMBRIDGE UNIVERSITY - CAMBRIDGE (UK)                                   *
 *                                                                             *
 *******************************************************************************
 EEEEEEEEEE STARTING  DATE 20 09 2019 TIME 09:22:19.2
 Phonon calculation                                                              

 GEOMETRY INPUT FROM EXTERNAL FILE (FORTRAN UNIT 34)
 3D - CRYSTAL 

 *******************************************************************************
 LATTICE PARAMETERS  (ANGSTROMS AND DEGREES) - PRIMITIVE CELL
       A          B          C        ALPHA      BETA     GAMMA        VOLUME
    4.77858    5.58980    6.17266   100.97797 103.24165  96.98176    155.187726

 NUMBER OF IRREDUCIBLE ATOMS IN THE CELL:    6

 CARTESIAN COORDINATES (ANGSTROM) - IRREDUCIBLE ATOMS AND SYMMETRY RELATED

 AT.IRR.  AT  AT.N.          X                   Y                   Z
     1     1    16   -2.249668339086E+00 -1.308729642205E+00  1.419535125089E+00
     1     2    16    2.249668339086E+00  1.308729642205E+00 -1.419535125089E+00
     3     3    11   -1.270753887280E-01  1.450305608353E+00  1.241989367123E+00
     3     4    11    1.270753887280E-01 -1.450305608353E+00 -1.241989367123E+00
     5     5     8    2.077141762876E+00 -6.373542727700E-01  2.424551651872E+00
     5     6     8   -2.077141762876E+00  6.373542727700E-01 -2.424551651872E+00
     7     7     8   -1.260733603596E+00 -5.725611989950E-01  6.261689563410E-01
     7     8     8    1.260733603596E+00  5.725611989950E-01 -6.261689563410E-01
     9     9     8    1.267858663583E+00 -2.292795097307E+00  7.090006257310E-01
     9    10     8   -1.267858663583E+00  2.292795097307E+00 -7.090006257310E-01
    11    11     8   -1.396043276260E-01 -1.161026242347E+00 -3.568070249203E+00
    11    12     8    1.396043276260E-01  1.161026242347E+00  3.568070249203E+00

 SPACE  GROUP  N.                     :    2
 NUMBER OF SYMMETRY OPERATORS         :    2
 *******************************************************************************
 LATTICE PARAMETERS (ANGSTROMS AND DEGREES) - BOHR = 0.5291772083 ANGSTROM
 PRIMITIVE CELL - CENTRING CODE 1/0 VOLUME=   155.187726 - DENSITY  2.545 g/cm^3
         A              B              C           ALPHA      BETA       GAMMA 
     4.77857831     5.58980228     6.17266480   100.977971 103.241651  96.981761
 *******************************************************************************
 ATOMS IN THE ASYMMETRIC UNIT    6 - ATOMS IN THE UNIT CELL:   12
     ATOM                 X/A                 Y/B                 Z/C    
 *******************************************************************************
      1 T  16 S    -3.919121138967E-01 -2.229126851195E-01  2.447768315051E-01
      2 F  16 S     3.919121138967E-01  2.229126851195E-01 -2.447768315051E-01
      3 T  11 NA    4.180934764371E-02  3.096978499013E-01  2.102089484151E-01
      4 F  11 NA   -4.180934764371E-02 -3.096978499013E-01 -2.102089484151E-01
      5 T   8 O    -4.238340981765E-01  3.802692001718E-02  4.146668208196E-01
      6 F   8 O     4.238340981765E-01 -3.802692001718E-02 -4.146668208196E-01
      7 T   8 O    -2.294472362836E-01 -1.035408655936E-01  1.080213307265E-01
      8 F   8 O     2.294472362836E-01  1.035408655936E-01 -1.080213307265E-01
      9 T   8 O     3.104051707729E-01 -3.498994949507E-01  1.240280010402E-01
     10 F   8 O    -3.104051707729E-01  3.498994949507E-01 -1.240280010402E-01
     11 T   8 O    -2.303630284200E-01 -3.647287167796E-01  3.920577011057E-01
     12 F   8 O     2.303630284200E-01  3.647287167796E-01 -3.920577011057E-01

 T = ATOM BELONGING TO THE ASYMMETRIC UNIT
 *******************************************************************************
 * GEOMETRY EDITING - INPUT COORDINATES ARE GIVEN IN ANGSTROM         
 *******************************************************************************

 GEOMETRY NOW FULLY CONSISTENT WITH THE GROUP

 FRQFRQFRQFRQFRQFRQFRQFRQFRQFRQFRQFRQFRQFRQFRQFRQFRQFRQFRQFRQFRQFRQFRQFRQFRQFRQ

                       FREQUENCY CALCULATION

 OPTIMIZATION PERFORMED BEFORE FREQUENCIES CALCULATION
 *******************************************************************************
 INFORMATION **** NEW DEFAULT **** FINALRUN 4 FOR GEOMETRY OPTIMIZATIONS
 INFORMATION **** NEW DEFAULT **** OPTGEOM OPTIMIZES BOTH ATOMIC COORDINATES AND CELL PARAMETERS
 INFORMATION **** NEW DEFAULT **** TOL. ON ATOMIC DISP TO REDEFINE REF. GEOMETRY: 0.8 Angs
 INFORMATION **** NEW DEFAULT **** N POINTS TO REDEFINE REF. GEOMETRY: N OF OPT DEGS OF FREEDOM
 INFORMATION **** NEW DEFAULT **** TOL. ON ENERGY TO REDEFINE REF. GEOMETRY: 10**-3*(5*N. ATOMS)
 INFORMATION **** FULLOPTG **** FULL OPTIMIZATION (ATOMS AND CELL PARAMETERS)

 IMPORTANT INFORMATION:
 THE COORDINATE SYSTEM ADOPTED IN THE OPTIMIZATION IS NOT IN
 GENERAL HOMOGENEOUS UNITS. FOR THIS REASON THE GRADIENT AND 
 HESSIAN MATRIX IN TERMS OF THIS SYSTEM ARE GIVEN WITHOUT
 UNITS. FOR MORE DETAILS SEE THE MANUAL.

 *******************************************************************************
 COMBINED CELL/ATOM OPTIMIZATION CONTROL

 INITIAL TRUST RADIUS         0.50000 MAXIMUM TRUST RADIUS               0.50000
 MAXIMUM GRADIENT COMPONENT   0.00005 MAXIMUM DISPLACEMENT COMPONENT     0.00018
 R.M.S. OF GRADIENT COMPONENT 0.00003 R.M.S. OF DISPLACEMENT COMPONENTS  0.00012
 THRESHOLD ON ENERGY CHANGE 0.100E-06 EXTRAPOLATING POLYNOMIAL ORDER           2
 MAXIMUM ALLOWED NUMBER OF STEPS   -1 SORTING OF ENERGY POINTS:               NO
 ANALYTICAL  GRADIENT                 HESSIAN UPDATING                      BFGS
 STEP SIZE NUMERICAL GRADIENT 0.00100
 INITIAL HESSIAN MATRIX: SCHLEGEL MODEL 2
 *******************************************************************************

 INFORMATION **** INPFREQ **** FREQUENCY CALCULATION RESTART(DATA FROM FREQINFO.DAT)
 INFORMATION **** INPFREQ **** REMOVING ECKART CONDITIONS TO THE HESSIAN
 INFORMATION **** INPFREQ **** IR INTENSITIES EVALUATED THROUGH CPHF APPROACH

 GCALCO - MAX INDICES DIRECT LATTICE VECTOR    17    14    13
 NO.OF VECTORS CREATED 6999 STARS 3500 RMAX   120.40846 BOHR

 GEOMETRY FOR WAVE FUNCTION - DIMENSIONALITY OF THE SYSTEM    3
 (NON PERIODIC DIRECTION: LATTICE PARAMETER FORMALLY SET TO 500)
 *******************************************************************************
 LATTICE PARAMETERS (ANGSTROMS AND DEGREES) - BOHR = 0.5291772083 ANGSTROM
 PRIMITIVE CELL - CENTRING CODE 1/0 VOLUME=   155.187726 - DENSITY  2.545 g/cm^3
         A              B              C           ALPHA      BETA       GAMMA 
     4.77857831     5.58980228     6.17266480   100.977971 103.241651  96.981761
 *******************************************************************************
 ATOMS IN THE ASYMMETRIC UNIT    6 - ATOMS IN THE UNIT CELL:   12
     ATOM                 X/A                 Y/B                 Z/C    
 *******************************************************************************
      1 T  16 S    -3.919121138967E-01 -2.229126851195E-01  2.447768315051E-01
      2 F  16 S     3.919121138967E-01  2.229126851195E-01 -2.447768315051E-01
      3 T  11 NA    4.180934764371E-02  3.096978499013E-01  2.102089484151E-01
      4 F  11 NA   -4.180934764371E-02 -3.096978499013E-01 -2.102089484151E-01
      5 T   8 O    -4.238340981765E-01  3.802692001718E-02  4.146668208196E-01
      6 F   8 O     4.238340981765E-01 -3.802692001718E-02 -4.146668208196E-01
      7 T   8 O    -2.294472362836E-01 -1.035408655936E-01  1.080213307265E-01
      8 F   8 O     2.294472362836E-01  1.035408655936E-01 -1.080213307265E-01
      9 T   8 O     3.104051707729E-01 -3.498994949507E-01  1.240280010402E-01
     10 F   8 O    -3.104051707729E-01  3.498994949507E-01 -1.240280010402E-01
     11 T   8 O    -2.303630284200E-01 -3.647287167796E-01  3.920577011057E-01
     12 F   8 O     2.303630284200E-01  3.647287167796E-01 -3.920577011057E-01

 T = ATOM BELONGING TO THE ASYMMETRIC UNIT

 ****    2 SYMMOPS - TRANSLATORS IN FRACTIONAL UNITS
 **** MATRICES AND TRANSLATORS IN THE CRYSTALLOGRAPHIC REFERENCE FRAME
   V INV                    ROTATION MATRICES                   TRANSLATORS
   1   1  1.00  0.00  0.00  0.00  1.00  0.00  0.00  0.00  1.00  0.00  0.00  0.00
   2   2 -1.00 -0.00 -0.00  0.00 -1.00  0.00  0.00  0.00 -1.00  0.00  0.00  0.00

 DIRECT LATTICE VECTORS CARTESIAN COMPONENTS (ANGSTROM)
          X                    Y                    Z
   0.474080473311E+01  -0.599650263899E+00   0.819511654782E-03
   0.221279715562E-01   0.558957633450E+01   0.451255911538E-01
  -0.158003895478E+01  -0.121642384818E+01   0.584171042469E+01


 CARTESIAN COORDINATES - PRIMITIVE CELL
 *******************************************************************************
 *      ATOM          X(ANGSTROM)         Y(ANGSTROM)         Z(ANGSTROM)
 *******************************************************************************
    1    16 S    -2.249668339086E+00 -1.308729642205E+00  1.419535125089E+00
    2    16 S     2.249668339086E+00  1.308729642205E+00 -1.419535125089E+00
    3    11 NA   -1.270753887280E-01  1.450305608353E+00  1.241989367123E+00
    4    11 NA    1.270753887280E-01 -1.450305608353E+00 -1.241989367123E+00
    5     8 O     2.077141762876E+00 -6.373542727700E-01  2.424551651872E+00
    6     8 O    -2.077141762876E+00  6.373542727700E-01 -2.424551651872E+00
    7     8 O    -1.260733603596E+00 -5.725611989950E-01  6.261689563410E-01
    8     8 O     1.260733603596E+00  5.725611989950E-01 -6.261689563410E-01
    9     8 O     1.267858663583E+00 -2.292795097307E+00  7.090006257310E-01
   10     8 O    -1.267858663583E+00  2.292795097307E+00 -7.090006257310E-01
   11     8 O    -1.396043276260E-01 -1.161026242347E+00 -3.568070249203E+00
   12     8 O     1.396043276260E-01  1.161026242347E+00  3.568070249203E+00

 *******************************************************************************
 LOCAL ATOMIC FUNCTIONS BASIS SET
 *******************************************************************************
   ATOM   X(AU)   Y(AU)   Z(AU)  N. TYPE  EXPONENT  S COEF   P COEF   D/F/G COEF
 *******************************************************************************
   1 S   -4.251  -2.473   2.683
                                  1 S  
                                         6.070E+04 5.470E-04 0.000E+00 0.000E+00
                                         9.103E+03 4.230E-03 0.000E+00 0.000E+00
                                         2.071E+03 2.175E-02 0.000E+00 0.000E+00
                                         5.860E+02 8.510E-02 0.000E+00 0.000E+00
                                         1.906E+02 2.480E-01 0.000E+00 0.000E+00
                                         6.763E+01 4.670E-01 0.000E+00 0.000E+00
                                         2.513E+01 3.643E-01 0.000E+00 0.000E+00
                                  2 S  
                                         1.126E+02 2.167E-02 0.000E+00 0.000E+00
                                         3.480E+01 9.360E-02 0.000E+00 0.000E+00
                                         6.512E+00-2.607E-01 0.000E+00 0.000E+00
                                  3 S  
                                         3.240E+00 1.284E+00 0.000E+00 0.000E+00
                                         1.548E+00 6.604E-01 0.000E+00 0.000E+00
                                  4 S  
                                         4.054E-01 1.000E+00 0.000E+00 0.000E+00
                                  5 S  
                                         1.455E-01 1.000E+00 0.000E+00 0.000E+00
                           6-     8 P  
                                         5.644E+02 0.000E+00 2.480E-03 0.000E+00
                                         1.334E+02 0.000E+00 1.968E-02 0.000E+00
                                         4.247E+01 0.000E+00 8.998E-02 0.000E+00
                                         1.562E+01 0.000E+00 2.571E-01 0.000E+00
                                         6.109E+00 0.000E+00 4.352E-01 0.000E+00
                           9-    11 P  
                                         2.440E+00 0.000E+00 1.000E+00 0.000E+00
                          12-    14 P  
                                         8.388E-01 0.000E+00 1.000E+00 0.000E+00
                          15-    17 P  
                                         3.130E-01 0.000E+00 1.000E+00 0.000E+00
                          18-    20 P  
                                         1.077E-01 0.000E+00 1.000E+00 0.000E+00
                          21-    25 D  
                                         3.756E+00 0.000E+00 0.000E+00 2.000E-01
                                         8.120E-01 0.000E+00 0.000E+00 1.000E+00
                          26-    30 D  
                                         2.730E-01 0.000E+00 0.000E+00 1.000E+00
   2 S    4.251   2.473  -2.683
   3 NA  -0.240   2.741   2.347
                                 61 S  
                                         2.604E+04 6.181E-04 0.000E+00 0.000E+00
                                         3.906E+03 4.775E-03 0.000E+00 0.000E+00
                                         8.890E+02 2.447E-02 0.000E+00 0.000E+00
                                         2.515E+02 9.476E-02 0.000E+00 0.000E+00
                                         8.165E+01 2.687E-01 0.000E+00 0.000E+00
                                         2.890E+01 4.793E-01 0.000E+00 0.000E+00
                                         1.063E+01 3.325E-01 0.000E+00 0.000E+00
                                 62 S  
                                         5.377E+01 1.953E-02 0.000E+00 0.000E+00
                                         1.631E+01 9.265E-02 0.000E+00 0.000E+00
                                         2.373E+00-3.994E-01 0.000E+00 0.000E+00
                                 63 S  
                                         9.573E-01 1.643E+00 0.000E+00 0.000E+00
                                         4.081E-01 5.569E-01 0.000E+00 0.000E+00
                                 64 S  
                                         1.000E-01 1.000E+00 0.000E+00 0.000E+00
                          65-    67 P  
                                         1.381E+02 0.000E+00 5.795E-03 0.000E+00
                                         3.223E+01 0.000E+00 4.162E-02 0.000E+00
                                         9.982E+00 0.000E+00 1.628E-01 0.000E+00
                                         3.482E+00 0.000E+00 3.601E-01 0.000E+00
                                         1.230E+00 0.000E+00 4.486E-01 0.000E+00
                          68-    70 P  
                                         4.174E-01 0.000E+00 1.000E+00 0.000E+00
                          71-    73 P  
                                         1.000E-01 0.000E+00 1.000E+00 0.000E+00
                          74-    78 D  
                                         2.609E+00 0.000E+00 0.000E+00 1.000E+00
                          79-    83 D  
                                         4.300E-01 0.000E+00 0.000E+00 1.000E+00
                          84-    88 D  
                                         1.000E-01 0.000E+00 0.000E+00 1.000E+00
   4 NA   0.240  -2.741  -2.347
   5 O    3.925  -1.204   4.582
                                117 S  
                                         2.703E+04 2.173E-04 0.000E+00 0.000E+00
                                         4.052E+03 1.684E-03 0.000E+00 0.000E+00
                                         9.223E+02 8.740E-03 0.000E+00 0.000E+00
                                         2.612E+02 3.524E-02 0.000E+00 0.000E+00
                                         8.535E+01 1.115E-01 0.000E+00 0.000E+00
                                         3.104E+01 2.559E-01 0.000E+00 0.000E+00
                                118 S  
                                         1.226E+01 3.977E-01 0.000E+00 0.000E+00
                                         4.999E+00 2.463E-01 0.000E+00 0.000E+00
                                119 S  
                                         1.170E+00 1.000E+00 0.000E+00 0.000E+00
                                120 S  
                                         4.647E-01 1.000E+00 0.000E+00 0.000E+00
                                121 S  
                                         1.859E-01 1.000E+00 0.000E+00 0.000E+00
                         122-   124 P  
                                         6.327E+01 0.000E+00 6.069E-03 0.000E+00
                                         1.463E+01 0.000E+00 4.191E-02 0.000E+00
                                         4.450E+00 0.000E+00 1.615E-01 0.000E+00
                                         1.528E+00 0.000E+00 3.571E-01 0.000E+00
                         125-   127 P  
                                         5.294E-01 0.000E+00 1.000E+00 0.000E+00
                         128-   130 P  
                                         1.748E-01 0.000E+00 1.000E+00 0.000E+00
                         131-   135 D  
                                         2.314E+00 0.000E+00 0.000E+00 1.000E+00
                         136-   140 D  
                                         6.450E-01 0.000E+00 0.000E+00 1.000E+00
   6 O   -3.925   1.204  -4.582
   7 O   -2.382  -1.082   1.183
   8 O    2.382   1.082  -1.183
   9 O    2.396  -4.333   1.340
  10 O   -2.396   4.333  -1.340
  11 O   -0.264  -2.194  -6.743
  12 O    0.264   2.194   6.743
 INFORMATION **** SET_MPP **** PCRYSTAL CALCULATION
 INFORMATION **** READM2 **** NEW DEFAULT: FOCK/KS MATRIX MIXING SET TO 30 %
 INFORMATION **** READM2 **** NEW DEFAULT: FULL DIRECT SCF MODE
 INFORMATION **** READM2 **** NEW DEFAULT: COULOMB BIPOLAR BUFFER SET TO 32 Mb
 INFORMATION **** READM2 **** NEW DEFAULT: EXCHANGE BIPOLAR BUFFER SET TO 32 Mb
 INFORMATION **** TOLINTEG **** COULOMB AND EXCHANGE SERIES TOLERANCES MODIFIED

 *******************************************************************************
 NEW DEFAULT: DFT INTEGRATION GRID INCREASED TO XLGRID
 NEW DEFAULT: DIIS ACCELERATOR ACTIVE
 USE KEYWORD NODIIS TO TURN IT OFF
 *******************************************************************************

 INFORMATION **** DFTD3_INPUT **** PERFORM LATEST DISPERSION CORRECTION DFT-D3(BJ) WITH AUTOMATIC PARAMETER SETUP
 PLEASE CITE:
 (1) DFT-D3 Reference
  S. Grimme, J. Antony, S. Ehrlich, and H. Krieg, J. Chem. Phys. 132 (2010), 154104
 (2) BJ-Damping Reference
  S. Grimme, S. Ehrlich, and L. Goerigk, J. Comput. Chem. 32 (2011), 1456-1465
 (3) General DFT-D Review
  S. Grimme, A. Hansen, J. G. Brandenburg, and C. Bannwarth,
  Chem. Rev. 116 (2016), 5105-5154

 INFORMATION **** RDDFTP **** MAX N. OF POINTS ALLOWED IN A BATCH FOR NUMERICAL INTEGRATION         200
 INFORMATION **** READM2 **** FULL DIRECT SCF (MONO AND BIEL INT) SELECTED
 INFORMATION **** EXCHSIZE **** EXCHANGE BIPOLAR BUFFER SIZE SET TO    15000000
 INFORMATION **** BIPOSIZE **** COULOMB BIPOLAR BUFFER SET TO    15000000
 INFORMATION **** MAXCYCLE **** MAX NUMBER OF SCF CYCLES SET TO         190
 *******************************************************************************
 N. OF ATOMS PER CELL        12  COULOMB OVERLAP TOL         (T1) 10**   -8
 NUMBER OF SHELLS           124  COULOMB PENETRATION TOL     (T2) 10**   -8
 NUMBER OF AO               308  EXCHANGE OVERLAP TOL        (T3) 10**   20
 N. OF ELECTRONS PER CELL   118  EXCHANGE PSEUDO OVP (F(G))  (T4) 10**   20
 CORE ELECTRONS PER CELL     56  EXCHANGE PSEUDO OVP (P(G))  (T5) 10**   20
 N. OF SYMMETRY OPERATORS     2  POLE ORDER IN MONO ZONE                  4
 *******************************************************************************
 TYPE OF CALCULATION :  RESTRICTED CLOSED SHELL
 KOHN-SHAM HAMILTONIAN

 (EXCHANGE)[CORRELATION] FUNCTIONAL:(PERDEW-BURKE-ERNZERHOF)[PERDEW-BURKE-ERNZERHOF]


 CAPPA:IS1  7;IS2  6;IS3  5; K PTS MONK NET 106; SYMMOPS:K SPACE   2;G SPACE   2

 *******************************************************************************
 MAX NUMBER OF SCF CYCLES     190  CONVERGENCE ON DELTAP        10**-16
 WEIGHT OF F(I) IN F(I+1)      40% CONVERGENCE ON ENERGY        10**-10
 SHRINK. FACT.(MONKH.)    7  6  5  NUMBER OF K POINTS IN THE IBZ    106
 SHRINKING FACTOR(GILAT NET)    7  NUMBER OF K POINTS(GILAT NET)    106
 *******************************************************************************
 *** K POINTS COORDINATES (OBLIQUE COORDINATES IN UNITS OF IS =  7)
   1-R(  0  0  0)   2-C(  1  0  0)   3-C(  2  0  0)   4-C(  3  0  0)
   5-C(  0  1  0)   6-C(  1  1  0)   7-C(  2  1  0)   8-C(  3  1  0)
   9-C(  4  1  0)  10-C(  5  1  0)  11-C(  6  1  0)  12-C(  0  2  0)
  13-C(  1  2  0)  14-C(  2  2  0)  15-C(  3  2  0)  16-C(  4  2  0)
  17-C(  5  2  0)  18-C(  6  2  0)  19-R(  0  3  0)  20-C(  1  3  0)
  21-C(  2  3  0)  22-C(  3  3  0)  23-C(  0  0  1)  24-C(  1  0  1)
  25-C(  2  0  1)  26-C(  3  0  1)  27-C(  4  0  1)  28-C(  5  0  1)
  29-C(  6  0  1)  30-C(  0  1  1)  31-C(  1  1  1)  32-C(  2  1  1)
  33-C(  3  1  1)  34-C(  4  1  1)  35-C(  5  1  1)  36-C(  6  1  1)
  37-C(  0  2  1)  38-C(  1  2  1)  39-C(  2  2  1)  40-C(  3  2  1)
  41-C(  4  2  1)  42-C(  5  2  1)  43-C(  6  2  1)  44-C(  0  3  1)
  45-C(  1  3  1)  46-C(  2  3  1)  47-C(  3  3  1)  48-C(  4  3  1)
  49-C(  5  3  1)  50-C(  6  3  1)  51-C(  0  4  1)  52-C(  1  4  1)
  53-C(  2  4  1)  54-C(  3  4  1)  55-C(  4  4  1)  56-C(  5  4  1)
  57-C(  6  4  1)  58-C(  0  5  1)  59-C(  1  5  1)  60-C(  2  5  1)
  61-C(  3  5  1)  62-C(  4  5  1)  63-C(  5  5  1)  64-C(  6  5  1)
  65-C(  0  0  2)  66-C(  1  0  2)  67-C(  2  0  2)  68-C(  3  0  2)
  69-C(  4  0  2)  70-C(  5  0  2)  71-C(  6  0  2)  72-C(  0  1  2)
  73-C(  1  1  2)  74-C(  2  1  2)  75-C(  3  1  2)  76-C(  4  1  2)
  77-C(  5  1  2)  78-C(  6  1  2)  79-C(  0  2  2)  80-C(  1  2  2)
  81-C(  2  2  2)  82-C(  3  2  2)  83-C(  4  2  2)  84-C(  5  2  2)
  85-C(  6  2  2)  86-C(  0  3  2)  87-C(  1  3  2)  88-C(  2  3  2)
  89-C(  3  3  2)  90-C(  4  3  2)  91-C(  5  3  2)  92-C(  6  3  2)
  93-C(  0  4  2)  94-C(  1  4  2)  95-C(  2  4  2)  96-C(  3  4  2)
  97-C(  4  4  2)  98-C(  5  4  2)  99-C(  6  4  2) 100-C(  0  5  2)
 101-C(  1  5  2) 102-C(  2  5  2) 103-C(  3  5  2) 104-C(  4  5  2)
 105-C(  5  5  2) 106-C(  6  5  2)

 DIRECT LATTICE VECTORS COMPON. (A.U.)     RECIP. LATTICE VECTORS COMPON. (A.U.) 
        X            Y            Z              X            Y            Z
    8.9588226   -1.1331748    0.0015487      0.7007644   -0.0042971    0.1886447
    0.0418158   10.5627685    0.0852750      0.0750305    0.5933843    0.1438548
   -2.9858409   -2.2987079   11.0392329     -0.0006779   -0.0045831    0.5680310

 DISK SPACE FOR EIGENVECTORS (FTN 10)    19921440 REALS

 SYMMETRY ADAPTION OF THE BLOCH FUNCTIONS ENABLED
 TTTTTTTTTTTTTTTTTTTTTTTTTTTTTT gordsh1     TELAPSE        0.25 TCPU        0.11

 MATRIX SIZE: P(G)  371108, F(G)  186278, P(G) IRR   95153, F(G) IRR   95153
 MAX G-VECTOR INDEX FOR 1- AND 2-ELECTRON INTEGRALS  85

 TTTTTTTTTTTTTTTTTTTTTTTTTTTTTT INPUT       TELAPSE        0.26 TCPU        0.12

 NEIGHBORS OF THE NON-EQUIVALENT ATOMS

 N = NUMBER OF NEIGHBORS AT DISTANCE R
    ATOM  N     R/ANG      R/AU   NEIGHBORS (ATOM LABELS AND CELL INDICES)
   1 S    1     1.4661     2.7705    7 O    0 0 0
   1 S    1     1.4664     2.7710    9 O   -1 0 0
   1 S    1     1.4672     2.7725   11 O    0 0 1
   1 S    1     1.6719     3.1595    5 O   -1 0 0
   1 S    1     2.5503     4.8194    6 O    0 0 1
   1 S    1     3.0981     5.8545   10 O    0-1 0

   3 NA   1     2.3591     4.4581   12 O    0 0 0
   3 NA   1     2.3781     4.4940    9 O    0 1 0
   3 NA   1     2.3993     4.5339    7 O    0 0 0
   3 NA   1     2.4120     4.5579   10 O    0 0 0
   3 NA   1     2.4873     4.7002    8 O    0 0 0
   3 NA   1     2.5942     4.9023   11 O    0 1 1

   5 O    1     1.5057     2.8453    6 O    1 0 1
   5 O    1     1.6719     3.1595    1 S    1 0 0
   5 O    1     2.3421     4.4260    7 O    1 0 0
   5 O    1     2.5176     4.7577    9 O    0 0 0
   5 O    1     2.5275     4.7762   11 O    1 0 1
   5 O    1     2.5503     4.8194    2 S    0 0 1

   7 O    1     1.4661     2.7705    1 S    0 0 0
   7 O    1     2.3421     4.4260    5 O   -1 0 0
   7 O    1     2.3993     4.5339    3 NA   0 0 0
   7 O    1     2.4812     4.6888    9 O   -1 0 0
   7 O    1     2.4864     4.6987   11 O    0 0 1
   7 O    1     2.4873     4.7002    4 NA   0 0 0

   9 O    1     1.4664     2.7710    1 S    1 0 0
   9 O    1     2.3781     4.4940    3 NA   0-1 0
   9 O    1     2.4120     4.5579    4 NA   0 0 0
   9 O    1     2.4481     4.6262   11 O    1 0 1
   9 O    1     2.4812     4.6888    7 O    1 0 0
   9 O    1     2.5176     4.7577    5 O    0 0 0

  11 O    1     1.4672     2.7725    1 S    0 0-1
  11 O    1     2.3591     4.4581    4 NA   0 0 0
  11 O    1     2.4481     4.6262    9 O   -1 0-1
  11 O    1     2.4864     4.6987    7 O    0 0-1
  11 O    1     2.5275     4.7762    5 O   -1 0-1
  11 O    1     2.5942     4.9023    3 NA   0-1-1


 SYMMETRY ALLOWED ELASTIC DISTORTION 1
  0.5773503  0.0000000  0.0000000
  0.0000000  0.5773503  0.0000000
  0.0000000  0.0000000  0.5773503

 SYMMETRY ALLOWED ELASTIC DISTORTION 2
  0.8164966  0.0000000  0.0000000
  0.0000000 -0.4082483  0.0000000
  0.0000000  0.0000000 -0.4082483

 SYMMETRY ALLOWED ELASTIC DISTORTION 3
  0.0000000  0.7071068  0.0000000
  0.7071068  0.0000000  0.0000000
  0.0000000  0.0000000  0.0000000

 SYMMETRY ALLOWED ELASTIC DISTORTION 4
  0.0000000  0.0000000  0.0000000
  0.0000000  0.7071068  0.0000000
  0.0000000  0.0000000 -0.7071068

 SYMMETRY ALLOWED ELASTIC DISTORTION 5
  0.0000000  0.0000000  0.7071068
  0.0000000  0.0000000  0.0000000
  0.7071068  0.0000000  0.0000000

 SYMMETRY ALLOWED ELASTIC DISTORTION 6
  0.0000000  0.0000000  0.0000000
  0.0000000  0.0000000  0.7071068
  0.0000000  0.7071068  0.0000000

 SYMMETRY ALLOWED INTERNAL DEGREE(S) OF FREEDOM:  18
 TTTTTTTTTTTTTTTTTTTTTTTTTTTTTT SYMM        TELAPSE        0.30 TCPU        0.15
 TTTTTTTTTTTTTTTTTTTTTTTTTTTTTT INT_SCREEN  TELAPSE        0.30 TCPU        0.16

 *******************************************************************************
 *                                                                             *
 *                                                                             *
 *         FFFFF  RRRR   EEEE   QQQ   U   U  EEEE  N   N   CCC  Y   Y          *
 *         F      R   R  E     Q   Q  U   U  E     NN  N  C      Y Y           *
 *         FFF    RRRR   EEEE  Q   Q  U   U  EEEE  N N N  C       Y            *
 *         F      R   R  E     Q  QQ  U   U  E     N  NN  C       Y            *
 *         F      R   R  EEEE   QQ Q   UUU   EEEE  N   N   CCC    Y            *
 *                                                                             *
 *                                                                             *
 * CALCULATION OF PHONON FREQUENCIES AT THE GAMMA POINT.                       *
 *                                                                             *
 * SYMMETRY IS EXPLOITED TO BUILD THE TOTAL HESSIAN MATRIX.                    *
 * (F. PASCALE PHD THESIS TURIN-PARIS 2002)                                    *
 *                                                                             *
 *******************************************************************************


 * INTENSITIES COMPUTED VIA THE CPHF ANALYTICAL APPROACH                       *
 *                                                                             *
 * REFERENCES TO BE QUOTED WHEN USING THIS MODULE:                             *
 *                                                                             *
 * F. Pascale, C.M. Zicovich-Wilson, F. Lopez, B. Civalleri                    *
 * R. Orlando, R. Dovesi                                                       *
 * The calculation of the vibration frequencies of crystalline                 *
 * compounds and its implementation in the CRYSTAL code                        *
 * J. Comput. Chem. 25 (2004) 888-897                                          *
 *                                                                             *
 * C.M. Zicovich-Wilson, F. Pascale, C. Roetti, V.R. Saunders,                 *
 * R. Orlando, R. Dovesi                                                       *
 * The calculation of the vibration frequencies of alpha-quartz:               *
 * the effect of hamiltonian and basis set                                     *
 * J. Comput. Chem. 25 (2004) 1873-1881                                        *
 *******************************************************************************


 *                                                                             *
 * FOR THE ANALYTICAL IR INTENSITIES MODULE PLEASE CITE:                       *
 *                                                                             *
 * L. Maschio, B. Kirtman, R. Orlando, M. Rerat,                               *
 * Ab initio analytical infrared intensities for periodic systems              *
 * through a coupled perturbed Hartree-Fock/Kohn-Sham method                   *
 * J. Chem. Phys. 137, 204113 (2012)                                           *
 *******************************************************************************


ADDED BY HAND BY JK
 *******************************************************************************

 POLARIZABILITY (ALPHA), DIELECTRIC (EPSILON) AND FIRST-ORDER ELECTRIC
 SUSCEPTIBILITY (CHI(1)) TENSORS (INDEPENDENT COMPONENTS)

  FR.(eV) COMP.   ALPHA(Re,Im)           EPSILON(Re,Im)                CHI(1)
  0.000   XX     116.7596       0.0000       2.3885       0.0000       1.3246
  0.000   XY      -5.6621       0.0000      -0.05775      0.0000      -0.0642
  0.000   XZ     -18.1271       0.0000      -0.214525     0.0000      -0.2057
  0.000   YY     107.5130       0.0000       2.28254      0.0000       1.2197
  0.000   YZ       9.9092       0.0000       0.10648      0.0000       0.1124
  0.000   ZZ     129.0851       0.0000       2.554228     0.0000       1.4645




 ATOMS ISOTOPIC MASS (AMU) FOR FREQUENCY CALCULATION 

    1 S      31.9721    2 S      31.9721    3 NA     22.9898    4 NA     22.9898
    5 O      15.9949    6 O      15.9949    7 O      15.9949    8 O      15.9949
    9 O      15.9949   10 O      15.9949   11 O      15.9949   12 O      15.9949

 INFORMATION CONCERNING THE SCF+GRADIENT CALCULATIONS REQUIRED FOR
 GENERATING FREQUENCIES. IN PRINCIPLE 3N+1 SCF + GRADIENT
 CALCULATIONS  ARE REQUIRED;
 FOR EACH OF THEM THE REMAINING POINT SYMMETRY IS INDICATED.
 POINT SYMMETRY PERMITS TO GENERATE GRADIENTS FOR DISPLACEMENT B 
 STARTING FROM THE GRADIENT GENERATED BY DISPLACEMENT A.

   N   LABEL SYMBOL DISPLACEMENT     SYM. 

   1     EQUILIBRIUM GEOMETRY            2

   2      1   S            DX           1
   3      1   S            DY           1
   4      1   S            DZ           1
   5      3   NA           DX           1
   6      3   NA           DY           1
   7      3   NA           DZ           1
   8      5   O            DX           1
   9      5   O            DY           1
  10      5   O            DZ           1
  11      7   O            DX           1
  12      7   O            DY           1
  13      7   O            DZ           1
  14      9   O            DX           1
  15      9   O            DY           1
  16      9   O            DZ           1
  17     11   O            DX           1
  18     11   O            DY           1
  19     11   O            DZ           1
 USE OF RESIDUAL SYMMETRY AFTER DISPLACEMENT

 NUMERICAL GRADIENT COMPUTED WITH A SINGLE DISPLACEMENT (+DX) FOR EACH
 CARTESIAN COORDINATE WITH RESPECT TO THE EQUILIBRIUM CONFIGURATION
 DX=  0.003 ANGSTROM
 NUMBER OF IRREDUCIBLE ATOMS                     6
 NUMBER OF SCF+GRADIENT CALCULATIONS            19

  ATOM  SYMOP  ORDER
    1      1      1
    3      1      1
    5      1      1
    7      1      1
    9      1      1
   11      1      1

 ATOM  : IRREDUCIBLE ATOM
 SYMOP : NUMBER OF SYMMETRY OPERATORS THAT DOESN'T MOVE THE IRREDUCIBLE ATOM
 ORDER : MAXIMUM ORDER AMONG THE OPERATORS OF THE IRREDUCIBLE ATOM

 *******************************************************************************


 GCALCO - MAX INDICES DIRECT LATTICE VECTOR    17    14    13
 NO.OF VECTORS CREATED 6999 STARS 3500 RMAX   120.40846 BOHR

 CAPPA:IS1  7;IS2  6;IS3  5; K PTS MONK NET 106; SYMMOPS:K SPACE   2;G SPACE   2

 TTTTTTTTTTTTTTTTTTTTTTTTTTTTTT gordsh1     TELAPSE        0.31 TCPU        0.16

 MATRIX SIZE: P(G)  371108, F(G)  186278, P(G) IRR   95153, F(G) IRR   95153
 MAX G-VECTOR INDEX FOR 1- AND 2-ELECTRON INTEGRALS  85

 TTTTTTTTTTTTTTTTTTTTTTTTTTTTTT INPUT       TELAPSE        0.32 TCPU        0.16

 SYMMETRY ALLOWED INTERNAL DEGREE(S) OF FREEDOM:  18
 TTTTTTTTTTTTTTTTTTTTTTTTTTTTTT SYMM        TELAPSE        0.33 TCPU        0.18
 TTTTTTTTTTTTTTTTTTTTTTTTTTTTTT INT_SCREEN  TELAPSE        0.33 TCPU        0.18

         THE FIRST POINT IS RESTORED FROM THE FREQINFO.DAT


 RESTART FROM  AN INCOMPLETE HESSIAN MATRIX


 HHHHHHHHHHHHHHHHHHHHHHHHHHHHHHHHHHHHHHHHHHHHHHHHHHHHHHHHHHHHHHHHHHHHHHHHHHHHHHH
                   FORCE CONSTANT MATRIX - NUMERICAL ESTIMATE
 HHHHHHHHHHHHHHHHHHHHHHHHHHHHHHHHHHHHHHHHHHHHHHHHHHHHHHHHHHHHHHHHHHHHHHHHHHHHHHH
 MAX ABS(DGRAD): MAXIMUM ABSOLUTE GRADIENT DIFFERENCE WITH RESPECT TO
                 THE CENTRAL POINT
 DE:             ENERGY DIFFERENCE WITH RESPECT TO THE CENTRAL POINT
                 (DE IS EXPECTED TO BE POSITIVE FOR ALL DISPLACEMENTS)

   ATOM      MAX ABS(DGRAD)       TOTAL ENERGY (AU)  N.CYC      DE       SYM
    CENTRAL POINT             -1.722134091896E+03     0     0.0000E+00     2
    1 S  DX                   RESTORED FROM A PREV. HESS. MATRIX
    1 S  DY                   RESTORED FROM A PREV. HESS. MATRIX
    1 S  DZ                   RESTORED FROM A PREV. HESS. MATRIX
    3 NA DX                   RESTORED FROM A PREV. HESS. MATRIX
    3 NA DY                   RESTORED FROM A PREV. HESS. MATRIX
    3 NA DZ                   RESTORED FROM A PREV. HESS. MATRIX
    5 O  DX                   RESTORED FROM A PREV. HESS. MATRIX
    5 O  DY                   RESTORED FROM A PREV. HESS. MATRIX
    5 O  DZ                   RESTORED FROM A PREV. HESS. MATRIX
    7 O  DX                   RESTORED FROM A PREV. HESS. MATRIX
    7 O  DY                   RESTORED FROM A PREV. HESS. MATRIX
    7 O  DZ                   RESTORED FROM A PREV. HESS. MATRIX
    9 O  DX                   RESTORED FROM A PREV. HESS. MATRIX
    9 O  DY                   RESTORED FROM A PREV. HESS. MATRIX
    9 O  DZ   1.1419E-03      -1.722134088424E+03    13     3.4721E-06     1
   11 O  DX   7.4468E-04      -1.722134088729E+03     9     3.1675E-06     1
   11 O  DY   1.7871E-03      -1.722134086774E+03    13     5.1222E-06     1
   11 O  DZ   1.3703E-03      -1.722134088048E+03     9     3.8479E-06     1

 GCALCO - MAX INDICES DIRECT LATTICE VECTOR    17    14    13
 NO.OF VECTORS CREATED 6999 STARS 3500 RMAX   120.40846 BOHR

 CAPPA:IS1  7;IS2  6;IS3  5; K PTS MONK NET 106; SYMMOPS:K SPACE   2;G SPACE   2

 TTTTTTTTTTTTTTTTTTTTTTTTTTTTTT gordsh1     TELAPSE     9210.56 TCPU     9190.31

 MATRIX SIZE: P(G)  371108, F(G)  186278, P(G) IRR   95153, F(G) IRR   95153
 MAX G-VECTOR INDEX FOR 1- AND 2-ELECTRON INTEGRALS  85

 TTTTTTTTTTTTTTTTTTTTTTTTTTTTTT INPUT       TELAPSE     9210.57 TCPU     9190.31

 SYMMETRY ALLOWED INTERNAL DEGREE(S) OF FREEDOM:  18
 TTTTTTTTTTTTTTTTTTTTTTTTTTTTTT SYMM        TELAPSE     9211.90 TCPU     9191.64
 TTTTTTTTTTTTTTTTTTTTTTTTTTTTTT INT_SCREEN  TELAPSE     9211.90 TCPU     9191.64

 ATOMIC BORN CHARGE TENSOR (UNITS OF e, ELECTRON CHARGE).
 DYNAMIC CHARGE = 1/3 * TRACE .

 ATOM   1 S  DYNAMIC CHARGE     3.179148

              1           2           3
   1     2.9343E+00 -3.6744E-01 -3.9573E-02
   2     1.5418E-01  3.2887E+00  2.3354E-02
   3     2.3695E-01  6.3486E-01  3.3145E+00

 ATOM   2 S  DYNAMIC CHARGE     3.179148

              1           2           3
   1     2.9343E+00 -3.6744E-01 -3.9573E-02
   2     1.5418E-01  3.2887E+00  2.3354E-02
   3     2.3695E-01  6.3486E-01  3.3145E+00

 ATOM   3 NA DYNAMIC CHARGE     1.216464

              1           2           3
   1     1.2511E+00  4.0219E-02  5.8695E-03
   2     2.8762E-02  1.1887E+00 -4.0205E-02
   3    -1.9257E-02 -4.2662E-02  1.2096E+00

 ATOM   4 NA DYNAMIC CHARGE     1.216464

              1           2           3
   1     1.2511E+00  4.0219E-02  5.8695E-03
   2     2.8762E-02  1.1887E+00 -4.0205E-02
   3    -1.9257E-02 -4.2662E-02  1.2096E+00

 ATOM   5 O  DYNAMIC CHARGE    -0.711815

              1           2           3
   1    -4.2291E-01  3.1769E-01  1.7445E-01
   2     1.3903E-01 -9.4387E-01 -3.7097E-01
   3     8.3235E-02 -6.1787E-01 -7.6866E-01

 ATOM   6 O  DYNAMIC CHARGE    -0.711815

              1           2           3
   1    -4.2291E-01  3.1769E-01  1.7445E-01
   2     1.3903E-01 -9.4387E-01 -3.7097E-01
   3     8.3235E-02 -6.1787E-01 -7.6866E-01

 ATOM   7 O  DYNAMIC CHARGE    -1.258128

              1           2           3
   1    -1.3405E+00 -2.8287E-01  4.9898E-01
   2    -2.7145E-01 -1.1129E+00  1.3891E-01
   3     4.7787E-01  1.2806E-01 -1.3210E+00

 ATOM   8 O  DYNAMIC CHARGE    -1.258128

              1           2           3
   1    -1.3405E+00 -2.8287E-01  4.9898E-01
   2    -2.7145E-01 -1.1129E+00  1.3891E-01
   3     4.7787E-01  1.2806E-01 -1.3210E+00

 ATOM   9 O  DYNAMIC CHARGE    -1.230700

              1           2           3
   1    -1.4285E+00 -1.3621E-01 -3.2361E-01
   2    -3.2598E-01 -9.9177E-01 -2.1029E-01
   3    -6.0878E-01 -3.1270E-01 -1.2718E+00

 ATOM  10 O  DYNAMIC CHARGE    -1.230700

              1           2           3
   1    -1.4285E+00 -1.3621E-01 -3.2361E-01
   2    -3.2598E-01 -9.9177E-01 -2.1029E-01
   3    -6.0878E-01 -3.1270E-01 -1.2718E+00

 ATOM  11 O  DYNAMIC CHARGE    -1.194968

              1           2           3
   1    -9.9349E-01  4.2862E-01 -3.1612E-01
   2     2.7546E-01 -1.4289E+00  4.5920E-01
   3    -1.7003E-01  2.1032E-01 -1.1625E+00

 ATOM  12 O  DYNAMIC CHARGE    -1.194968

              1           2           3
   1    -9.9349E-01  4.2862E-01 -3.1612E-01
   2     2.7546E-01 -1.4289E+00  4.5920E-01
   3    -1.7003E-01  2.1032E-01 -1.1625E+00

 +++ SYMMETRY ADAPTION OF VIBRATIONAL MODES +++

 SYMMETRY INFORMATION:
 K-LITTLE GROUP: CLASS TABLE, CHARACTER TABLE.
 IRREP-(DIMENSION, NO. IRREDUCIBLE SETS)
 [WARNINGS: (1) ONLY ACTIVE IRREPS ARE GENERATED AND LISTED.
            (2) ONLY RELEVANT CLASSES ARE CONSIDERED IN THE CHARACTER TABLE
            (3) SYMBOLS MAY NOT FULLY COINCIDE WITH THOSE FROM TEXT BOOKS.]

 (P, D, RP, RD, STAND FOR PAIRING, DOUBLING, REAL PAIRING AND REAL DOUBLING 
 OF THE IRREPS (SEE MANUAL))

 CLASS  | GROUP OPERATORS (SEE SYMMOPS KEYWORD)
 --------------------------------------------------------------------
 I      |   2;

 IRREP/CLA      E      I
 -----------------------
  MULTIP |      1      1
 -----------------------
    Ag   |   1.00   1.00
    Au   |   1.00  -1.00
 
 Ag -(1,  18);
 Au -(1,  18);

 BORN CHARGE VECTOR IN THE BASIS OF NORMAL MODES (UNITS OF e*M_E**(-1/2) ).
 e AND M_E ARE UNITS OF ELECTRON CHARGE AND MASS, RESPECTIVELY.

 MODE         X              Y              Z
   1   -0.15833E-04    0.25697E-04    0.52460E-04
   2   -0.22325E-04   -0.19519E-04   -0.66793E-04
   3    0.75021E-05   -0.37324E-04    0.46591E-04
   4   -0.10464E-02    0.28892E-02   -0.17920E-02
   5   -0.12189E-18    0.12189E-18   -0.81261E-19
   6   -0.32504E-18   -0.40630E-19    0.16252E-18
   7    0.00000E+00    0.38599E-18   -0.81261E-19
   8    0.14724E-02   -0.44731E-02   -0.13977E-02
   9    0.82063E-02   -0.29664E-02   -0.28569E-02
  10    0.40630E-19    0.00000E+00    0.32504E-18
  11   -0.81261E-19    0.16252E-18    0.32504E-18
  12    0.24455E-02    0.16764E-02    0.20243E-02
  13    0.71103E-19    0.32504E-18   -0.36567E-18
  14    0.56887E-02    0.29938E-02    0.60818E-02
  15    0.28441E-18   -0.81261E-19   -0.16252E-18
  16   -0.25102E-02   -0.67906E-02    0.58478E-02
  17   -0.16252E-18    0.00000E+00   -0.13002E-17
  18   -0.12189E-18    0.24378E-18    0.00000E+00
  19   -0.21875E-03    0.11430E-02    0.85941E-03
  20    0.81261E-19    0.16252E-18    0.00000E+00
  21    0.18316E-02   -0.94984E-04   -0.11769E-02
  22   -0.34271E-02   -0.17401E-02   -0.73272E-02
  23    0.44185E-18   -0.21839E-18    0.30473E-19
  24    0.45397E-02   -0.73934E-02   -0.72228E-02
  25    0.32504E-18   -0.32504E-18    0.32504E-18
  26   -0.16604E-02   -0.63766E-02    0.17485E-02
  27    0.32504E-18    0.32504E-18    0.00000E+00
  28   -0.72997E-02    0.13883E-01    0.15769E-01
  29    0.12189E-18   -0.52819E-18   -0.73135E-18
  30    0.40630E-19    0.40630E-19    0.00000E+00
  31    0.56489E-02   -0.86128E-02   -0.97308E-02
  32    0.81261E-19    0.56882E-18    0.00000E+00
  33   -0.14955E-01    0.10313E-01   -0.18672E-01
  34   -0.36567E-18   -0.24378E-18   -0.32504E-18
  35    0.17749E-01    0.16500E-01   -0.39415E-02
  36    0.32504E-18    0.00000E+00    0.65009E-18

 HHHHHHHHHHHHHHHHHHHHHHHHHHHHHHHHHHHHHHHHHHHHHHHHHHHHHHHHHHHHHHHHHHHHHHHHHHHHHH
 VIBRATIONAL CONTRIBUTIONS TO THE STATIC DIELECTRIC TENSOR (OSCILLATOR
 STRENGTHS) ARE PURE NUMBERS. THEY ARE COMPUTED FOR EACH nth MODE AS:

   f_(n,ij) = 1 / (4 * pi * eps0) * 4 * pi / V * Z_(n,i) * Z_(n,j) / nu_n**2

 WHERE:
  1/(4*pi*eps0)  1 A.U. [M*L**3*T**(-4)*C**(-2)]
  V              CELL VOLUME (BOHR**3) [L**3]
  Z_(n,i)        ith COMPONENT OF BORN CHARGE VECTOR IN THE BASIS
                 OF NORMAL MODES ( e*M_E**(-1/2) ) [C*T*M**(-1/2)]
  nu_n           FREQUENCY (HARTREE) [T**(-1)]
  e, M_E         UNITS OF ELECTRON CHARGE AND MASS, RESPECTIVELY
  M, L, T, C     MASS, LENGTH, TIME, CURRENT, RESPECTIVELY

 HHHHHHHHHHHHHHHHHHHHHHHHHHHHHHHHHHHHHHHHHHHHHHHHHHHHHHHHHHHHHHHHHHHHHHHHHHHHHH

 MODE      CARTESIAN AXES SYSTEM

   4       0.08767   -0.24208    0.15015
          -0.24208    0.66843   -0.41458
           0.15015   -0.41458    0.25713

   8       0.09277   -0.28184   -0.08807
          -0.28184    0.85623    0.26755
          -0.08807    0.26755    0.08360

   9       2.39916   -0.86724   -0.83522
          -0.86724    0.31348    0.30191
          -0.83522    0.30191    0.29076

  12       0.11011    0.07548    0.09114
           0.07548    0.05174    0.06248
           0.09114    0.06248    0.07544

  14       0.49616    0.26111    0.53045
           0.26111    0.13742    0.27916
           0.53045    0.27916    0.56711

  16       0.07302    0.19754   -0.17011
           0.19754    0.53436   -0.46018
          -0.17011   -0.46018    0.39629

  19       0.00020   -0.00107   -0.00080
          -0.00107    0.00558    0.00420
          -0.00080    0.00420    0.00315

  21       0.01020   -0.00053   -0.00656
          -0.00053    0.00003    0.00034
          -0.00656    0.00034    0.00421

  22       0.02551    0.01295    0.05454
           0.01295    0.00658    0.02769
           0.05454    0.02769    0.11660

  24       0.04369   -0.07115   -0.06951
          -0.07115    0.11587    0.11320
          -0.06951    0.11320    0.11059

  26       0.00517    0.01987   -0.00545
           0.01987    0.07630   -0.02092
          -0.00545   -0.02092    0.00574

  28       0.07411   -0.14094   -0.16008
          -0.14094    0.26805    0.30446
          -0.16008    0.30446    0.34581

  31       0.01816   -0.02769   -0.03128
          -0.02769    0.04222    0.04770
          -0.03128    0.04770    0.05389

  33       0.08939   -0.06164    0.11160
          -0.06164    0.04251   -0.07696
           0.11160   -0.07696    0.13933

  35       0.12282    0.11418   -0.02728
           0.11418    0.10615   -0.02536
          -0.02728   -0.02536    0.00606

 SUM TENSOR OF THE VIBRATIONAL CONTRIBUTIONS TO THE' STATIC DIELECTRIC     TENSOR

           3.64815   -1.01303   -0.45648
          -1.01303    3.22495    0.41070
          -0.45648    0.41070    2.45572

 ANGLES BETWEEN CARTESIAN AXES AND CRYSTALLOGRAPHIC AXES (DEGREES)

    7.20890  89.77319 104.83128
   97.20889   0.51516 101.36545
   89.99017  89.53746  18.84713

 MODE      PRINCIPAL AXES SYSTEM             ANGLES BETWEEN PRINCIPAL AXES AND
                                             CRYSTALLOGRAPHIC AXES (DEGREES)

   4       0.00000   -0.00000   -0.00000     27.11743  69.86533 107.92554
           0.00000    1.01323    0.00000    113.19363  36.20062 124.16066
          -0.00000    0.00000   -0.00000    103.26609  61.31919  39.81678

   8       0.00000   -0.00000   -0.00000     25.42840  71.55429 107.74342
          -0.00000    1.03261    0.00000    114.30444  24.26204  80.41214
           0.00000   -0.00000    0.00000     82.97276 105.19905  20.32230

   9       3.00341    0.00000    0.00000     21.99963 108.78593 117.35977
           0.00000   -0.00000    0.00000     77.33527  19.65203 105.80399
           0.00000   -0.00000    0.00000     72.31773  95.56288  32.29054

  12       0.23730    0.00000   -0.00000     51.88034  61.69317  74.50078
           0.00000    0.00000    0.00000    131.63991  34.66054  91.02054
          -0.00000    0.00000   -0.00000    114.91294 108.29848  15.53447

  14       1.20068    0.00000    0.00000     53.45769  69.73390  65.21650
           0.00000   -0.00000   -0.00000    124.96524  27.98669  93.16324
          -0.00000   -0.00000    0.00000    124.26909 108.45704  25.01193

  16       0.00000   -0.00000    0.00000     13.07872 110.06010  99.89044
           0.00000    1.00367    0.00000     79.86734  43.47879 143.85296
           0.00000    0.00000    0.00000     81.81761  53.38053  55.64651

  19      -0.00000   -0.00000   -0.00000     15.08564  82.79047 101.00238
          -0.00000    0.00894    0.00000    104.42165  37.41516  63.56353
           0.00000    0.00000   -0.00000     85.66718 126.47584  28.97236

  21       0.01444    0.00000   -0.00000     32.94041  92.55724 135.86095
          -0.00000   -0.00000   -0.00000     95.10563   2.60801 103.21252
           0.00000    0.00000    0.00000     57.55872  89.48825  48.86574

  22       0.00000   -0.00000   -0.00000     26.02778  89.99052 129.25875
          -0.00000   -0.00000    0.00000    102.18738  12.65523 110.49552
           0.00000    0.00000    0.14868     67.37568  77.34477  46.32169

  24      -0.00000   -0.00000    0.00000     38.75983  58.22340 108.73857
           0.00000    0.27015   -0.00000    118.75299  48.81672  54.59291
           0.00000   -0.00000    0.00000     66.37861 122.52591  41.48961

  26      -0.00000    0.00000   -0.00000      7.38632 104.36791 101.42324
           0.00000    0.08721    0.00000     82.86462  20.89840 119.30136
          -0.00000    0.00000    0.00000     88.10094  75.15207  31.86769

  28      -0.00000    0.00000   -0.00000     34.94400  62.03906 108.55869
          -0.00000    0.00000   -0.00000    113.96688  51.64724 134.96065
          -0.00000   -0.00000    0.68797    113.81688  51.05301  50.80432

  31      -0.00000   -0.00000    0.00000     40.46844  56.51487 108.79126
           0.00000    0.11427    0.00000    118.14252  52.28186  50.78904
           0.00000    0.00000    0.00000     63.52318 124.53170  45.19541

  33      -0.00000    0.00000    0.00000     50.48146 114.21528 136.95372
           0.00000   -0.00000    0.00000     62.61947  34.36533 107.91147
           0.00000    0.00000    0.27122     51.73213 112.81755  52.45542

  35       0.23503    0.00000    0.00000     50.74151  47.65541 117.99592
           0.00000    0.00000    0.00000    140.12136  43.14129  88.28333
          -0.00000    0.00000   -0.00000     84.08236  83.23862  28.05790

 INTEGRATED IR INTENSITIES, IN UNITS OF KM/MOL, ARE COMPUTED UNDER THE
 HYPOTHESIS OF ISOTROPIC RESPONSE (I.E. POWDER SAMPLE):

   INTENS_n = 1 / (4 * pi * eps0) * pi * N_AV / 3 / c**2 *
                             * d_n * ( Z_(n,x)**2 + Z_(n,y)**2 + Z_(n,z)**2 )
            = 0.17770712E+07 * d_n * ( Z_(n,x)**2 + Z_(n,y)**2 + Z_(n,z)**2 )

 WHERE:
  1/(4*pi*eps0)  1 A.U. [M*L**3*T**(-4)*C**(-2)]
  N_AV           AVOGADRO'S NUMBER [QM**(-1)]
  c              SPEED OF LIGHT [L*T**(-1)]
  d_n            DEGENERACY OF THE MODE
  Z_(n,x)        xth COMPONENT OF BORN CHARGE VECTOR IN THE BASIS
                 OF NORMAL MODES ( e*M_E**(-1/2) ) [C*T*M**(-1/2)]
  M,L,T,C,QM     MASS, LENGTH, TIME, CURRENT, QUANTITY OF MATTER, RESPECTIVELY

 HHHHHHHHHHHHHHHHHHHHHHHHHHHHHHHHHHHHHHHHHHHHHHHHHHHHHHHHHHHHHHHHHHHHHHHHHHHHHH
 EIGENVALUES (EIGV) OF THE MASS WEIGHTED HESSIAN MATRIX AND HARMONIC TRANSVERSE
 OPTICAL (TO) FREQUENCIES. IRREP LABELS REFER TO SYMMETRY REPRESENTATION
 ANALYSIS; A AND I INDICATE WHETHER THE MODE IS ACTIVE OR INACTIVE,
 RESPECTIVELY, FOR IR AND RAMAN; INTEGRATED IR INTENSITIES IN BRACKETS.

 CONVERSION FACTORS FOR FREQUENCIES:
      1 CM**(-1) =   0.4556335E-05 HARTREE
      1 THZ      =   0.3335641E+02 CM**(-1)

 HHHHHHHHHHHHHHHHHHHHHHHHHHHHHHHHHHHHHHHHHHHHHHHHHHHHHHHHHHHHHHHHHHHHHHHHHHHHHH

    MODES         EIGV          FREQUENCIES     IRREP  IR   INTENS    RAMAN
             (HARTREE**2)   (CM**-1)     (THZ)             (KM/MOL)
    1-   1   -0.2266E-09     -3.3039   -0.0990  (Au )   A (     0.01)   I
    2-   2   -0.1574E-09     -2.7536   -0.0825  (Au )   A (     0.01)   I
    3-   3   -0.1070E-09     -2.2704   -0.0681  (Au )   A (     0.01)   I
    4-   4    0.1498E-06     84.9592    2.5470  (Au )   A (    22.49)   I
    5-   5    0.1993E-06     97.9694    2.9370  (Ag )   I (     0.00)   A
    6-   6    0.2454E-06    108.7251    3.2595  (Ag )   I (     0.00)   A
    7-   7    0.2677E-06    113.5542    3.4043  (Ag )   I (     0.00)   A
    8-   8    0.2804E-06    116.2178    3.4841  (Au )   A (    42.88)   I
    9-   9    0.3368E-06    127.3738    3.8186  (Au )   A (   149.81)   I
   10-  10    0.3536E-06    130.5015    3.9123  (Ag )   I (     0.00)   A
   11-  11    0.6398E-06    175.5520    5.2629  (Ag )   I (     0.00)   A
   12-  12    0.6517E-06    177.1806    5.3117  (Au )   A (    22.90)   I
   13-  13    0.7785E-06    193.6500    5.8055  (Ag )   I (     0.00)   A
   14-  14    0.7826E-06    194.1604    5.8208  (Au )   A (   139.17)   I
   15-  15    0.1012E-05    220.7615    6.6183  (Ag )   I (     0.00)   A
   16-  16    0.1035E-05    223.3310    6.6953  (Au )   A (   153.91)   I
   17-  17    0.1170E-05    237.3717    7.1162  (Ag )   I (     0.00)   A
   18-  18    0.2256E-05    329.6766    9.8835  (Ag )   I (     0.00)   A
   19-  19    0.2809E-05    367.8486   11.0278  (Au )   A (     3.72)   I
   20-  20    0.3183E-05    391.5825   11.7393  (Ag )   I (     0.00)   A
   21-  21    0.3945E-05    435.9244   13.0687  (Au )   A (     8.44)   I
   22-  22    0.5525E-05    515.8843   15.4658  (Au )   A (   121.66)   I
   23-  23    0.5563E-05    517.6696   15.5193  (Ag )   I (     0.00)   A
   24-  24    0.5660E-05    522.1676   15.6542  (Au )   A (   226.47)   I
   25-  25    0.5937E-05    534.7604   16.0317  (Ag )   I (     0.00)   A
   26-  26    0.6395E-05    555.0066   16.6387  (Au )   A (    82.59)   I
   27-  27    0.7602E-05    605.1122   18.1408  (Ag )   I (     0.00)   A
   28-  28    0.8628E-05    644.6747   19.3269  (Au )   A (   879.09)   I
   29-  29    0.1052E-04    711.8472   21.3406  (Ag )   I (     0.00)   A
   30-  30    0.1374E-04    813.5143   24.3885  (Ag )   I (     0.00)   A
   31-  31    0.2108E-04   1007.7654   30.2120  (Au )   A (   356.80)   I
   32-  32    0.2235E-04   1037.5207   31.1041  (Ag )   I (     0.00)   A
   33-  33    0.3002E-04   1202.5967   36.0529  (Au )   A (  1206.01)   I
   34-  34    0.3040E-04   1210.1927   36.2807  (Ag )   I (     0.00)   A
   35-  35    0.3078E-04   1217.5517   36.5013  (Au )   A (  1071.22)   I
   36-  36    0.3201E-04   1241.7874   37.2278  (Ag )   I (     0.00)   A

 NORMAL MODES NORMALIZED TO CLASSICAL AMPLITUDES (IN BOHR)

 FREQ(CM**-1)     -3.30     -2.75     -2.27     84.96     97.97    108.73

 AT.   1 S  X     0.3466   -0.1844    0.0874   -0.0007    0.0059    0.0522
            Y     0.1173    0.3533    0.2274   -0.0082    0.0351    0.0270
            Z     0.1405    0.1572   -0.4045   -0.0022   -0.0206    0.0224
 AT.   2 S  X     0.3466   -0.1844    0.0874   -0.0007   -0.0059   -0.0522
            Y     0.1173    0.3533    0.2274   -0.0082   -0.0351   -0.0270
            Z     0.1405    0.1572   -0.4045   -0.0022    0.0206   -0.0224
 AT.   3 NA X     0.3451   -0.1847    0.0888   -0.0239    0.1328   -0.0157
            Y     0.1182    0.3522    0.2213    0.0551   -0.0055    0.0721
            Z     0.1410    0.1577   -0.4001   -0.0351    0.0258   -0.0183
 AT.   4 NA X     0.3451   -0.1847    0.0888   -0.0239   -0.1328    0.0157
            Y     0.1182    0.3522    0.2213    0.0551    0.0055   -0.0721
            Z     0.1410    0.1577   -0.4001   -0.0351   -0.0258    0.0183
 AT.   5 O  X     0.3446   -0.1797    0.0775    0.0767   -0.0111    0.0044
            Y     0.1177    0.3571    0.2357   -0.0635    0.0184    0.0149
            Z     0.1396    0.1592   -0.4185    0.0915   -0.0012    0.0126
 AT.   6 O  X     0.3446   -0.1797    0.0775    0.0767    0.0111   -0.0044
            Y     0.1177    0.3571    0.2357   -0.0635   -0.0184   -0.0149
            Z     0.1396    0.1592   -0.4185    0.0915    0.0012   -0.0126
 AT.   7 O  X     0.3484   -0.1834    0.0877    0.0103    0.0176    0.0422
            Y     0.1186    0.3499    0.2216    0.0110    0.0470    0.0420
            Z     0.1401    0.1551   -0.4094    0.0300    0.0065    0.0242
 AT.   8 O  X     0.3484   -0.1834    0.0877    0.0103   -0.0176   -0.0422
            Y     0.1186    0.3499    0.2216    0.0110   -0.0470   -0.0420
            Z     0.1401    0.1551   -0.4094    0.0300   -0.0065   -0.0242
 AT.   9 O  X     0.3463   -0.1871    0.0918   -0.0230    0.0161    0.0678
            Y     0.1154    0.3562    0.2175    0.0740    0.0457   -0.0112
            Z     0.1366    0.1629   -0.4065   -0.0071   -0.0447    0.0139
 AT.  10 O  X     0.3463   -0.1871    0.0918   -0.0230   -0.0161   -0.0678
            Y     0.1154    0.3562    0.2175    0.0740   -0.0457    0.0112
            Z     0.1366    0.1629   -0.4065   -0.0071    0.0447   -0.0139
 AT.  11 O  X     0.3458   -0.1829    0.0874   -0.0253   -0.0068    0.0771
            Y     0.1162    0.3527    0.2376   -0.0785    0.0220    0.0455
            Z     0.1416    0.1594   -0.3925   -0.0704   -0.0282    0.0305
 AT.  12 O  X     0.3458   -0.1829    0.0874   -0.0253    0.0068   -0.0771
            Y     0.1162    0.3527    0.2376   -0.0785   -0.0220   -0.0455
            Z     0.1416    0.1594   -0.3925   -0.0704    0.0282   -0.0305

 FREQ(CM**-1)    113.55    116.22    127.37    130.50    175.55    177.18

 AT.   1 S  X    -0.0190   -0.0042   -0.0210   -0.0096    0.0144   -0.0044
            Y     0.0283    0.0092    0.0120    0.0183   -0.0025   -0.0046
            Z    -0.0300    0.0003    0.0094   -0.0234    0.0013   -0.0010
 AT.   2 S  X     0.0190   -0.0042   -0.0210    0.0096   -0.0144   -0.0044
            Y    -0.0283    0.0092    0.0120   -0.0183    0.0025   -0.0046
            Z     0.0300    0.0003    0.0094    0.0234   -0.0013   -0.0010
 AT.   3 NA X    -0.0268    0.0086    0.1029   -0.0478    0.0119    0.0329
            Y    -0.0119   -0.0557   -0.0452    0.0762   -0.0169    0.0268
            Z     0.0171   -0.0162   -0.0410    0.0712    0.0127    0.0103
 AT.   4 NA X     0.0268    0.0086    0.1029    0.0478   -0.0119    0.0329
            Y     0.0119   -0.0557   -0.0452   -0.0762    0.0169    0.0268
            Z    -0.0171   -0.0162   -0.0410   -0.0712   -0.0127    0.0103
 AT.   5 O  X    -0.0567    0.0590   -0.0280    0.0155    0.0629   -0.0556
            Y     0.0281    0.0142    0.0076   -0.0019   -0.0212   -0.0499
            Z    -0.0417    0.0296    0.0164    0.0130    0.0493    0.0247
 AT.   6 O  X     0.0567    0.0590   -0.0280   -0.0155   -0.0629   -0.0556
            Y    -0.0281    0.0142    0.0076    0.0019    0.0212   -0.0499
            Z     0.0417    0.0296    0.0164   -0.0130   -0.0493    0.0247
 AT.   7 O  X    -0.0678   -0.0619   -0.0007    0.0080   -0.0225   -0.0491
            Y     0.0493    0.0132    0.0067    0.0135    0.0149    0.0630
            Z    -0.0702   -0.0676    0.0326   -0.0024   -0.0291    0.0059
 AT.   8 O  X     0.0678   -0.0619   -0.0007   -0.0080    0.0225   -0.0491
            Y    -0.0493    0.0132    0.0067   -0.0135   -0.0149    0.0630
            Z     0.0702   -0.0676    0.0326    0.0024    0.0291    0.0059
 AT.   9 O  X    -0.0197   -0.0537   -0.0182   -0.0172   -0.0242    0.0112
            Y    -0.0357    0.0124    0.0375    0.0507    0.0158   -0.0393
            Z     0.0056    0.0831   -0.0120   -0.0266    0.0597   -0.0110
 AT.  10 O  X     0.0197   -0.0537   -0.0182    0.0172    0.0242    0.0112
            Y     0.0357    0.0124    0.0375   -0.0507   -0.0158   -0.0393
            Z    -0.0056    0.0831   -0.0120    0.0266   -0.0597   -0.0110
 AT.  11 O  X     0.0484    0.0559   -0.0585   -0.0364    0.0644    0.0542
            Y     0.0734    0.0210   -0.0101   -0.0169   -0.0222   -0.0008
            Z    -0.0155   -0.0244    0.0031   -0.0459   -0.0522   -0.0328
 AT.  12 O  X    -0.0484    0.0559   -0.0585    0.0364   -0.0644    0.0542
            Y    -0.0734    0.0210   -0.0101    0.0169    0.0222   -0.0008
            Z     0.0155   -0.0244    0.0031    0.0459    0.0522   -0.0328

 FREQ(CM**-1)    193.65    194.16    220.76    223.33    237.37    329.68

 AT.   1 S  X    -0.0236   -0.0091   -0.0063    0.0038   -0.0075    0.0149
            Y     0.0183   -0.0100   -0.0277    0.0153    0.0216    0.0022
            Z     0.0127   -0.0192    0.0079   -0.0140    0.0308   -0.0162
 AT.   2 S  X     0.0236   -0.0091    0.0063    0.0038    0.0075   -0.0149
            Y    -0.0183   -0.0100    0.0277    0.0153   -0.0216   -0.0022
            Z    -0.0127   -0.0192   -0.0079   -0.0140   -0.0308    0.0162
 AT.   3 NA X     0.0160    0.0457    0.0428   -0.0207   -0.0036    0.0017
            Y     0.0481    0.0353    0.0526   -0.0624   -0.0257   -0.0000
            Z    -0.0673    0.0751    0.0379    0.0538    0.0494   -0.0028
 AT.   4 NA X    -0.0160    0.0457   -0.0428   -0.0207    0.0036   -0.0017
            Y    -0.0481    0.0353   -0.0526   -0.0624    0.0257    0.0000
            Z     0.0673    0.0751   -0.0379    0.0538   -0.0494    0.0028
 AT.   5 O  X     0.0037    0.0232   -0.0104    0.0012    0.0022    0.0074
            Y     0.0117    0.0025   -0.0104   -0.0052    0.0205    0.0114
            Z     0.0122   -0.0209   -0.0169    0.0093    0.0161   -0.0001
 AT.   6 O  X    -0.0037    0.0232    0.0104    0.0012   -0.0022   -0.0074
            Y    -0.0117    0.0025    0.0104   -0.0052   -0.0205   -0.0114
            Z    -0.0122   -0.0209    0.0169    0.0093   -0.0161    0.0001
 AT.   7 O  X    -0.0327   -0.0129   -0.0208    0.0107    0.0029    0.0300
            Y     0.0035   -0.0257   -0.0331    0.0388   -0.0043   -0.0648
            Z    -0.0115   -0.0375   -0.0131    0.0130    0.0209   -0.0593
 AT.   8 O  X     0.0327   -0.0129    0.0208    0.0107   -0.0029   -0.0300
            Y    -0.0035   -0.0257    0.0331    0.0388    0.0043    0.0648
            Z     0.0115   -0.0375    0.0131    0.0130   -0.0209    0.0593
 AT.   9 O  X    -0.0438   -0.0292   -0.0103    0.0134   -0.0168    0.0011
            Y     0.0370    0.0075   -0.0536    0.0297    0.0248    0.0284
            Z     0.0351    0.0031    0.0280   -0.0380    0.0464   -0.0039
 AT.  10 O  X     0.0438   -0.0292    0.0103    0.0134    0.0168   -0.0011
            Y    -0.0370    0.0075    0.0536    0.0297   -0.0248   -0.0284
            Z    -0.0351    0.0031   -0.0280   -0.0380   -0.0464    0.0039
 AT.  11 O  X    -0.0293   -0.0283    0.0102   -0.0037   -0.0162    0.0064
            Y     0.0126   -0.0155   -0.0096   -0.0036    0.0345    0.0235
            Z     0.0081   -0.0141    0.0219   -0.0339    0.0527    0.0141
 AT.  12 O  X     0.0293   -0.0283   -0.0102   -0.0037    0.0162   -0.0064
            Y    -0.0126   -0.0155    0.0096   -0.0036   -0.0345   -0.0235
            Z    -0.0081   -0.0141   -0.0219   -0.0339   -0.0527   -0.0141

 FREQ(CM**-1)    367.85    391.58    435.92    515.88    517.67    522.17

 AT.   1 S  X    -0.0067    0.0038    0.0006   -0.0209   -0.0265    0.0149
            Y     0.0046   -0.0016   -0.0033   -0.0029   -0.0068   -0.0177
            Z    -0.0013    0.0021    0.0057   -0.0198   -0.0014   -0.0123
 AT.   2 S  X    -0.0067   -0.0038    0.0006   -0.0209    0.0265    0.0149
            Y     0.0046    0.0016   -0.0033   -0.0029    0.0068   -0.0177
            Z    -0.0013   -0.0021    0.0057   -0.0198    0.0014   -0.0123
 AT.   3 NA X     0.0019   -0.0012   -0.0007    0.0041    0.0003   -0.0020
            Y    -0.0012   -0.0004    0.0006    0.0004    0.0031   -0.0011
            Z    -0.0023   -0.0014   -0.0032    0.0010   -0.0012   -0.0026
 AT.   4 NA X     0.0019    0.0012   -0.0007    0.0041   -0.0003   -0.0020
            Y    -0.0012    0.0004    0.0006    0.0004   -0.0031   -0.0011
            Z    -0.0023    0.0014   -0.0032    0.0010    0.0012   -0.0026
 AT.   5 O  X     0.0418   -0.0469    0.0286    0.0242    0.0110    0.0053
            Y    -0.0113    0.0162    0.0364   -0.0067   -0.0189   -0.0322
            Z     0.0337   -0.0367   -0.0274    0.0006    0.0039   -0.0280
 AT.   6 O  X     0.0418    0.0469    0.0286    0.0242   -0.0110    0.0053
            Y    -0.0113   -0.0162    0.0364   -0.0067    0.0189   -0.0322
            Z     0.0337    0.0367   -0.0274    0.0006   -0.0039   -0.0280
 AT.   7 O  X    -0.0275    0.0295   -0.0150    0.0243    0.0043   -0.0080
            Y     0.0094   -0.0133    0.0389    0.0000   -0.0186    0.0362
            Z    -0.0230    0.0237    0.0240    0.0411    0.0309    0.0051
 AT.   8 O  X    -0.0275   -0.0295   -0.0150    0.0243   -0.0043   -0.0080
            Y     0.0094    0.0133    0.0389    0.0000    0.0186    0.0362
            Z    -0.0230   -0.0237    0.0240    0.0411   -0.0309    0.0051
 AT.   9 O  X     0.0252   -0.0219    0.0066   -0.0283   -0.0184   -0.0115
            Y    -0.0291    0.0236   -0.0361   -0.0219    0.0106    0.0256
            Z    -0.0395    0.0339    0.0130   -0.0010   -0.0284    0.0145
 AT.  10 O  X     0.0252    0.0219    0.0066   -0.0283    0.0184   -0.0115
            Y    -0.0291   -0.0236   -0.0361   -0.0219   -0.0106    0.0256
            Z    -0.0395   -0.0339    0.0130   -0.0010    0.0284    0.0145
 AT.  11 O  X    -0.0294    0.0242   -0.0207    0.0158    0.0414   -0.0129
            Y     0.0235   -0.0193   -0.0331    0.0338    0.0310    0.0076
            Z     0.0351   -0.0317   -0.0166   -0.0026    0.0016    0.0367
 AT.  12 O  X    -0.0294   -0.0242   -0.0207    0.0158   -0.0414   -0.0129
            Y     0.0235    0.0193   -0.0331    0.0338   -0.0310    0.0076
            Z     0.0351    0.0317   -0.0166   -0.0026   -0.0016    0.0367

 FREQ(CM**-1)    534.76    555.01    605.11    644.67    711.85    813.51

 AT.   1 S  X    -0.0096   -0.0125    0.0140   -0.0110    0.0044    0.0005
            Y     0.0171   -0.0200   -0.0168    0.0237   -0.0117   -0.0141
            Z    -0.0159    0.0139   -0.0265    0.0226   -0.0106   -0.0060
 AT.   2 S  X     0.0096   -0.0125   -0.0140   -0.0110   -0.0044   -0.0005
            Y    -0.0171   -0.0200    0.0168    0.0237    0.0117    0.0141
            Z     0.0159    0.0139    0.0265    0.0226    0.0106    0.0060
 AT.   3 NA X     0.0013    0.0017    0.0001    0.0006   -0.0002   -0.0004
            Y    -0.0005    0.0008    0.0003   -0.0012    0.0011    0.0012
            Z    -0.0048    0.0000   -0.0017    0.0000   -0.0002   -0.0000
 AT.   4 NA X    -0.0013    0.0017   -0.0001    0.0006    0.0002    0.0004
            Y     0.0005    0.0008   -0.0003   -0.0012   -0.0011   -0.0012
            Z     0.0048    0.0000    0.0017    0.0000    0.0002    0.0000
 AT.   5 O  X     0.0141    0.0147    0.0053    0.0164   -0.0379    0.0253
            Y     0.0103    0.0193   -0.0273   -0.0398    0.0131    0.0542
            Z     0.0144   -0.0154   -0.0128   -0.0371    0.0546   -0.0084
 AT.   6 O  X    -0.0141    0.0147   -0.0053    0.0164    0.0379   -0.0253
            Y    -0.0103    0.0193    0.0273   -0.0398   -0.0131   -0.0542
            Z    -0.0144   -0.0154    0.0128   -0.0371   -0.0546    0.0084
 AT.   7 O  X     0.0362   -0.0275    0.0141   -0.0022   -0.0031   -0.0020
            Y    -0.0086   -0.0073    0.0276   -0.0080   -0.0002    0.0083
            Z     0.0122    0.0143    0.0063    0.0007    0.0046    0.0062
 AT.   8 O  X    -0.0362   -0.0275   -0.0141   -0.0022    0.0031    0.0020
            Y     0.0086   -0.0073   -0.0276   -0.0080    0.0002   -0.0083
            Z    -0.0122    0.0143   -0.0063    0.0007   -0.0046   -0.0062
 AT.   9 O  X    -0.0111    0.0010   -0.0243    0.0065   -0.0074   -0.0118
            Y    -0.0476    0.0297    0.0085   -0.0004   -0.0003   -0.0004
            Z     0.0187   -0.0358    0.0167    0.0012   -0.0039   -0.0083
 AT.  10 O  X     0.0111    0.0010    0.0243    0.0065    0.0074    0.0118
            Y     0.0476    0.0297   -0.0085   -0.0004    0.0003    0.0004
            Z    -0.0187   -0.0358   -0.0167    0.0012    0.0039    0.0083
 AT.  11 O  X    -0.0158    0.0343   -0.0098    0.0003    0.0037    0.0075
            Y     0.0156   -0.0031    0.0151    0.0028   -0.0017   -0.0070
            Z    -0.0211    0.0091    0.0253   -0.0099    0.0058    0.0090
 AT.  12 O  X     0.0158    0.0343    0.0098    0.0003   -0.0037   -0.0075
            Y    -0.0156   -0.0031   -0.0151    0.0028    0.0017    0.0070
            Z     0.0211    0.0091   -0.0253   -0.0099   -0.0058   -0.0090

 FREQ(CM**-1)   1007.77   1037.52   1202.60   1210.19   1217.55   1241.79

 AT.   1 S  X     0.0040    0.0062   -0.0149    0.0229    0.0200    0.0071
            Y    -0.0074   -0.0101    0.0111    0.0023    0.0157    0.0196
            Z    -0.0068   -0.0084   -0.0185    0.0124   -0.0069   -0.0162
 AT.   2 S  X     0.0040   -0.0062   -0.0149   -0.0229    0.0200   -0.0071
            Y    -0.0074    0.0101    0.0111   -0.0023    0.0157   -0.0196
            Z    -0.0068    0.0084   -0.0185   -0.0124   -0.0069    0.0162
 AT.   3 NA X    -0.0001   -0.0000    0.0005   -0.0002   -0.0006   -0.0000
            Y     0.0001    0.0003   -0.0004   -0.0003   -0.0004   -0.0007
            Z     0.0003   -0.0001    0.0002    0.0005    0.0001   -0.0008
 AT.   4 NA X    -0.0001    0.0000    0.0005    0.0002   -0.0006    0.0000
            Y     0.0001   -0.0003   -0.0004    0.0003   -0.0004    0.0007
            Z     0.0003    0.0001    0.0002   -0.0005    0.0001    0.0008
 AT.   5 O  X     0.0003    0.0038    0.0004    0.0002   -0.0003    0.0021
            Y    -0.0010    0.0053   -0.0006   -0.0013   -0.0009   -0.0024
            Z    -0.0008   -0.0023    0.0002   -0.0016   -0.0003   -0.0029
 AT.   6 O  X     0.0003   -0.0038    0.0004   -0.0002   -0.0003   -0.0021
            Y    -0.0010   -0.0053   -0.0006    0.0013   -0.0009    0.0024
            Z    -0.0008    0.0023    0.0002    0.0016   -0.0003    0.0029
 AT.   7 O  X    -0.0232   -0.0237   -0.0045   -0.0086   -0.0223   -0.0193
            Y    -0.0169   -0.0150   -0.0041   -0.0067   -0.0159   -0.0153
            Z     0.0182    0.0201    0.0045    0.0052    0.0179    0.0166
 AT.   8 O  X    -0.0232    0.0237   -0.0045    0.0086   -0.0223    0.0193
            Y    -0.0169    0.0150   -0.0041    0.0067   -0.0159    0.0153
            Z     0.0182   -0.0201    0.0045   -0.0052    0.0179   -0.0166
 AT.   9 O  X     0.0285    0.0239    0.0216   -0.0294   -0.0194   -0.0031
            Y     0.0084    0.0081    0.0058   -0.0092   -0.0062   -0.0022
            Z     0.0166    0.0150    0.0130   -0.0176   -0.0104   -0.0003
 AT.  10 O  X     0.0285   -0.0239    0.0216    0.0294   -0.0194    0.0031
            Y     0.0084   -0.0081    0.0058    0.0092   -0.0062    0.0022
            Z     0.0166   -0.0150    0.0130    0.0176   -0.0104    0.0003
 AT.  11 O  X    -0.0130   -0.0125    0.0119   -0.0070    0.0029    0.0088
            Y     0.0243    0.0246   -0.0229    0.0123   -0.0077   -0.0196
            Z    -0.0206   -0.0186    0.0189   -0.0117    0.0066    0.0162
 AT.  12 O  X    -0.0130    0.0125    0.0119    0.0070    0.0029   -0.0088
            Y     0.0243   -0.0246   -0.0229   -0.0123   -0.0077    0.0196
            Z    -0.0206    0.0186    0.0189    0.0117    0.0066   -0.0162

 *******************************************************************************

 VIBRATIONAL TEMPERATURES (K) [MODE NUMBER;IRREP]

 TO MODES
   122.2 [   4;Au ]   141.0 [   5;Ag ]   156.4 [   6;Ag ]   163.4 [   7;Ag ]
   167.2 [   8;Au ]   183.3 [   9;Au ]   187.8 [  10;Ag ]   252.6 [  11;Ag ]
   254.9 [  12;Au ]   278.6 [  13;Ag ]   279.4 [  14;Au ]   317.6 [  15;Ag ]
   321.3 [  16;Au ]   341.5 [  17;Ag ]   474.3 [  18;Ag ]   529.3 [  19;Au ]
   563.4 [  20;Ag ]   627.2 [  21;Au ]   742.2 [  22;Au ]   744.8 [  23;Ag ]
   751.3 [  24;Au ]   769.4 [  25;Ag ]   798.5 [  26;Au ]   870.6 [  27;Ag ]
   927.5 [  28;Au ]  1024.2 [  29;Ag ]  1170.5 [  30;Ag ]  1449.9 [  31;Au ]
  1492.8 [  32;Ag ]  1730.3 [  33;Au ]  1741.2 [  34;Ag ]  1751.8 [  35;Au ]
  1786.7 [  36;Ag ]

 *******************************************************************************

 HARMONIC VIBRATIONAL CONTRIBUTIONS TO THERMODYNAMIC FUNCTIONS AT GIVEN
 TEMPERATURE AND PRESSURE:

 (EL = ELECTRONIC ENERGY
  E0 = ZERO-POINT ENERGY
  ET = THERMAL CONTRIBUTION TO THE VIBRATIONAL ENERGY
  PV = PRESSURE * VOLUME
  TS = TEMPERATURE * ENTROPY)

                          AU/CELL             EV/CELL                 KJ/MOL
 EL            :   -1722.134091896400  -46861.651040803772    -4521462.42108438
 E0            :       0.036597377310       0.995865265427          96.08640059


 *******************************************************************************

 THERMODYNAMIC FUNCTIONS WITH VIBRATIONAL CONTRIBUTIONS

 AT (T =  298.15 K, P =   0.10132500E+00 MPA):

                          AU/CELL             EV/CELL                 KJ/MOL
 ET            :       0.011836517116       0.322088005362          31.07677131
 PV            :       0.000003606725       0.000098143973           0.00946945
 TS            :       0.022065730782       0.600439060304          57.93356800
 ET+PV-TS      :      -0.010225606941      -0.278252910969         -26.84732724
 EL+E0+ET+PV-TS:   -1722.107720126031  -46860.933428449316    -4521393.18201104

 OTHER THERMODYNAMIC FUNCTIONS:

                      mHARTREE/(CELL*K)     mEV/(CELL*K)              J/(MOL*K)
 ENTROPY       :       0.074008823685       2.013882476284         194.31013920
 HEAT CAPACITY :       0.068927284574       1.875606767266         180.96856015

 *******************************************************************************
 TTTTTTTTTTTTTTTTTTTTTTTTTTTTTT END         TELAPSE     9212.08 TCPU     9191.76
 EEEEEEEEEE TERMINATION  DATE 20 09 2019 TIME 11:55:51.1
NODE    0 CPU TIME =      9191.759
NODE    1 CPU TIME =      9196.661
NODE    2 CPU TIME =      9201.716
NODE    3 CPU TIME =      9199.235
NODE    4 CPU TIME =      9201.135
NODE    5 CPU TIME =      9200.183
NODE    6 CPU TIME =      9200.971
NODE    7 CPU TIME =      9197.015
    TOTAL CPU TIME =     73588.675
