<?xml version="1.0" encoding="ISO-8859-1"?>
<modeling>
 <generator>
  <i name="program" type="string">vasp </i>
  <i name="version" type="string">6.4.2  </i>
  <i name="subversion" type="string">20Jul23 (build Mar 11 2024 15:08:48) complex                          parallel </i>
  <i name="platform" type="string">HPECrayEX_GCC </i>
  <i name="date" type="string">2024 11 13 </i>
  <i name="time" type="string">01:51:48 </i>
 </generator>
 <incar>
  <i type="int" name="ISTART">     1</i>
  <i type="string" name="PREC">Accurate</i>
  <i type="int" name="NELMIN">     4</i>
  <i type="int" name="IBRION">     8</i>
  <i name="EDIFF">      0.00000500</i>
  <i type="int" name="NSW">     1</i>
  <i type="int" name="ISIF">     3</i>
  <i name="ENCUT">    600.00000000</i>
  <i name="POTIM">      0.20000000</i>
  <i type="logical" name="LREAL"> F  </i>
  <i type="logical" name="LPLANE"> F  </i>
  <i type="int" name="ISMEAR">    -5</i>
  <i name="SIGMA">      0.05000000</i>
  <i type="int" name="LMAXMIX">     4</i>
  <i type="logical" name="LASPH"> T  </i>
  <i type="logical" name="LRPA"> F  </i>
  <i type="logical" name="LEPSILON"> T  </i>
 </incar>
 <primitive_cell>
  <structure name="primitive_cell" >
   <crystal>
    <varray name="basis" >
     <v>       4.78000000       0.00000000       0.00000000 </v>
     <v>      -0.71977227       5.52834088       0.00000000 </v>
     <v>      -1.40506055      -1.44648231       5.74750161 </v>
    </varray>
    <i name="volume">    151.88042797 </i>
    <varray name="rec_basis" >
     <v>       0.20920502       0.02723782       0.05799820 </v>
     <v>      -0.00000000       0.18088610       0.04552387 </v>
     <v>       0.00000000      -0.00000000       0.17398864 </v>
    </varray>
   </crystal>
   <varray name="positions" >
    <v>       0.03562140       0.31434519       0.20900384 </v>
    <v>       0.96437860       0.68565481       0.79099616 </v>
    <v>       0.61219534       0.77766144       0.24484015 </v>
    <v>       0.38780466       0.22233856       0.75515985 </v>
    <v>       0.58137871       0.03862518       0.41708693 </v>
    <v>       0.41862129       0.96137482       0.58291307 </v>
    <v>       0.77367226       0.89619626       0.10823110 </v>
    <v>       0.22632774       0.10380374       0.89176890 </v>
    <v>       0.31532091       0.64828632       0.12249705 </v>
    <v>       0.68467909       0.35171368       0.87750295 </v>
    <v>       0.77308342       0.63887214       0.39250280 </v>
    <v>       0.22691658       0.36112786       0.60749720 </v>
   </varray>
  </structure>
  <varray name="primitive_index" >
   <v type="int" >        1 </v>
   <v type="int" >        2 </v>
   <v type="int" >        3 </v>
   <v type="int" >        4 </v>
   <v type="int" >        5 </v>
   <v type="int" >        6 </v>
   <v type="int" >        7 </v>
   <v type="int" >        8 </v>
   <v type="int" >        9 </v>
   <v type="int" >       10 </v>
   <v type="int" >       11 </v>
   <v type="int" >       12 </v>
  </varray>
 </primitive_cell>
 <kpoints>
  <generation param="Gamma">
   <v type="int" name="divisions">       7        6        5 </v>
   <v name="usershift">      0.00000000       0.00000000       0.00000000 </v>
   <v name="genvec1">      0.14285714       0.00000000       0.00000000 </v>
   <v name="genvec2">      0.00000000       0.16666667      -0.00000000 </v>
   <v name="genvec3">      0.00000000       0.00000000       0.20000000 </v>
   <v name="shift">      0.00000000       0.00000000       0.00000000 </v>
  </generation>
  <varray name="kpointlist" >
   <v>       0.00000000       0.00000000       0.00000000 </v>
   <v>       0.14285714       0.00000000       0.00000000 </v>
   <v>       0.28571429       0.00000000       0.00000000 </v>
   <v>       0.42857143       0.00000000       0.00000000 </v>
   <v>       0.00000000       0.16666667       0.00000000 </v>
   <v>       0.14285714       0.16666667       0.00000000 </v>
   <v>       0.28571429       0.16666667       0.00000000 </v>
   <v>       0.42857143       0.16666667       0.00000000 </v>
   <v>      -0.42857143       0.16666667       0.00000000 </v>
   <v>      -0.28571429       0.16666667       0.00000000 </v>
   <v>      -0.14285714       0.16666667       0.00000000 </v>
   <v>       0.00000000       0.33333333       0.00000000 </v>
   <v>       0.14285714       0.33333333       0.00000000 </v>
   <v>       0.28571429       0.33333333       0.00000000 </v>
   <v>       0.42857143       0.33333333       0.00000000 </v>
   <v>      -0.42857143       0.33333333       0.00000000 </v>
   <v>      -0.28571429       0.33333333       0.00000000 </v>
   <v>      -0.14285714       0.33333333       0.00000000 </v>
   <v>       0.00000000       0.50000000       0.00000000 </v>
   <v>       0.14285714       0.50000000       0.00000000 </v>
   <v>       0.28571429       0.50000000       0.00000000 </v>
   <v>       0.42857143       0.50000000       0.00000000 </v>
   <v>       0.00000000       0.00000000       0.20000000 </v>
   <v>       0.14285714       0.00000000       0.20000000 </v>
   <v>       0.28571429       0.00000000       0.20000000 </v>
   <v>       0.42857143       0.00000000       0.20000000 </v>
   <v>      -0.42857143       0.00000000       0.20000000 </v>
   <v>      -0.28571429       0.00000000       0.20000000 </v>
   <v>      -0.14285714       0.00000000       0.20000000 </v>
   <v>       0.00000000       0.16666667       0.20000000 </v>
   <v>       0.14285714       0.16666667       0.20000000 </v>
   <v>       0.28571429       0.16666667       0.20000000 </v>
   <v>       0.42857143       0.16666667       0.20000000 </v>
   <v>      -0.42857143       0.16666667       0.20000000 </v>
   <v>      -0.28571429       0.16666667       0.20000000 </v>
   <v>      -0.14285714       0.16666667       0.20000000 </v>
   <v>       0.00000000       0.33333333       0.20000000 </v>
   <v>       0.14285714       0.33333333       0.20000000 </v>
   <v>       0.28571429       0.33333333       0.20000000 </v>
   <v>       0.42857143       0.33333333       0.20000000 </v>
   <v>      -0.42857143       0.33333333       0.20000000 </v>
   <v>      -0.28571429       0.33333333       0.20000000 </v>
   <v>      -0.14285714       0.33333333       0.20000000 </v>
   <v>       0.00000000       0.50000000       0.20000000 </v>
   <v>       0.14285714       0.50000000       0.20000000 </v>
   <v>       0.28571429       0.50000000       0.20000000 </v>
   <v>       0.42857143       0.50000000       0.20000000 </v>
   <v>      -0.42857143       0.50000000       0.20000000 </v>
   <v>      -0.28571429       0.50000000       0.20000000 </v>
   <v>      -0.14285714       0.50000000       0.20000000 </v>
   <v>       0.00000000      -0.33333333       0.20000000 </v>
   <v>       0.14285714      -0.33333333       0.20000000 </v>
   <v>       0.28571429      -0.33333333       0.20000000 </v>
   <v>       0.42857143      -0.33333333       0.20000000 </v>
   <v>      -0.42857143      -0.33333333       0.20000000 </v>
   <v>      -0.28571429      -0.33333333       0.20000000 </v>
   <v>      -0.14285714      -0.33333333       0.20000000 </v>
   <v>       0.00000000      -0.16666667       0.20000000 </v>
   <v>       0.14285714      -0.16666667       0.20000000 </v>
   <v>       0.28571429      -0.16666667       0.20000000 </v>
   <v>       0.42857143      -0.16666667       0.20000000 </v>
   <v>      -0.42857143      -0.16666667       0.20000000 </v>
   <v>      -0.28571429      -0.16666667       0.20000000 </v>
   <v>      -0.14285714      -0.16666667       0.20000000 </v>
   <v>       0.00000000       0.00000000       0.40000000 </v>
   <v>       0.14285714       0.00000000       0.40000000 </v>
   <v>       0.28571429       0.00000000       0.40000000 </v>
   <v>       0.42857143       0.00000000       0.40000000 </v>
   <v>      -0.42857143       0.00000000       0.40000000 </v>
   <v>      -0.28571429       0.00000000       0.40000000 </v>
   <v>      -0.14285714       0.00000000       0.40000000 </v>
   <v>       0.00000000       0.16666667       0.40000000 </v>
   <v>       0.14285714       0.16666667       0.40000000 </v>
   <v>       0.28571429       0.16666667       0.40000000 </v>
   <v>       0.42857143       0.16666667       0.40000000 </v>
   <v>      -0.42857143       0.16666667       0.40000000 </v>
   <v>      -0.28571429       0.16666667       0.40000000 </v>
   <v>      -0.14285714       0.16666667       0.40000000 </v>
   <v>       0.00000000       0.33333333       0.40000000 </v>
   <v>       0.14285714       0.33333333       0.40000000 </v>
   <v>       0.28571429       0.33333333       0.40000000 </v>
   <v>       0.42857143       0.33333333       0.40000000 </v>
   <v>      -0.42857143       0.33333333       0.40000000 </v>
   <v>      -0.28571429       0.33333333       0.40000000 </v>
   <v>      -0.14285714       0.33333333       0.40000000 </v>
   <v>       0.00000000       0.50000000       0.40000000 </v>
   <v>       0.14285714       0.50000000       0.40000000 </v>
   <v>       0.28571429       0.50000000       0.40000000 </v>
   <v>       0.42857143       0.50000000       0.40000000 </v>
   <v>      -0.42857143       0.50000000       0.40000000 </v>
   <v>      -0.28571429       0.50000000       0.40000000 </v>
   <v>      -0.14285714       0.50000000       0.40000000 </v>
   <v>       0.00000000      -0.33333333       0.40000000 </v>
   <v>       0.14285714      -0.33333333       0.40000000 </v>
   <v>       0.28571429      -0.33333333       0.40000000 </v>
   <v>       0.42857143      -0.33333333       0.40000000 </v>
   <v>      -0.42857143      -0.33333333       0.40000000 </v>
   <v>      -0.28571429      -0.33333333       0.40000000 </v>
   <v>      -0.14285714      -0.33333333       0.40000000 </v>
   <v>       0.00000000      -0.16666667       0.40000000 </v>
   <v>       0.14285714      -0.16666667       0.40000000 </v>
   <v>       0.28571429      -0.16666667       0.40000000 </v>
   <v>       0.42857143      -0.16666667       0.40000000 </v>
   <v>      -0.42857143      -0.16666667       0.40000000 </v>
   <v>      -0.28571429      -0.16666667       0.40000000 </v>
   <v>      -0.14285714      -0.16666667       0.40000000 </v>
  </varray>
  <varray name="weights" >
   <v>       0.00476190 </v>
   <v>       0.00952381 </v>
   <v>       0.00952381 </v>
   <v>       0.00952381 </v>
   <v>       0.00952381 </v>
   <v>       0.00952381 </v>
   <v>       0.00952381 </v>
   <v>       0.00952381 </v>
   <v>       0.00952381 </v>
   <v>       0.00952381 </v>
   <v>       0.00952381 </v>
   <v>       0.00952381 </v>
   <v>       0.00952381 </v>
   <v>       0.00952381 </v>
   <v>       0.00952381 </v>
   <v>       0.00952381 </v>
   <v>       0.00952381 </v>
   <v>       0.00952381 </v>
   <v>       0.00476190 </v>
   <v>       0.00952381 </v>
   <v>       0.00952381 </v>
   <v>       0.00952381 </v>
   <v>       0.00952381 </v>
   <v>       0.00952381 </v>
   <v>       0.00952381 </v>
   <v>       0.00952381 </v>
   <v>       0.00952381 </v>
   <v>       0.00952381 </v>
   <v>       0.00952381 </v>
   <v>       0.00952381 </v>
   <v>       0.00952381 </v>
   <v>       0.00952381 </v>
   <v>       0.00952381 </v>
   <v>       0.00952381 </v>
   <v>       0.00952381 </v>
   <v>       0.00952381 </v>
   <v>       0.00952381 </v>
   <v>       0.00952381 </v>
   <v>       0.00952381 </v>
   <v>       0.00952381 </v>
   <v>       0.00952381 </v>
   <v>       0.00952381 </v>
   <v>       0.00952381 </v>
   <v>       0.00952381 </v>
   <v>       0.00952381 </v>
   <v>       0.00952381 </v>
   <v>       0.00952381 </v>
   <v>       0.00952381 </v>
   <v>       0.00952381 </v>
   <v>       0.00952381 </v>
   <v>       0.00952381 </v>
   <v>       0.00952381 </v>
   <v>       0.00952381 </v>
   <v>       0.00952381 </v>
   <v>       0.00952381 </v>
   <v>       0.00952381 </v>
   <v>       0.00952381 </v>
   <v>       0.00952381 </v>
   <v>       0.00952381 </v>
   <v>       0.00952381 </v>
   <v>       0.00952381 </v>
   <v>       0.00952381 </v>
   <v>       0.00952381 </v>
   <v>       0.00952381 </v>
   <v>       0.00952381 </v>
   <v>       0.00952381 </v>
   <v>       0.00952381 </v>
   <v>       0.00952381 </v>
   <v>       0.00952381 </v>
   <v>       0.00952381 </v>
   <v>       0.00952381 </v>
   <v>       0.00952381 </v>
   <v>       0.00952381 </v>
   <v>       0.00952381 </v>
   <v>       0.00952381 </v>
   <v>       0.00952381 </v>
   <v>       0.00952381 </v>
   <v>       0.00952381 </v>
   <v>       0.00952381 </v>
   <v>       0.00952381 </v>
   <v>       0.00952381 </v>
   <v>       0.00952381 </v>
   <v>       0.00952381 </v>
   <v>       0.00952381 </v>
   <v>       0.00952381 </v>
   <v>       0.00952381 </v>
   <v>       0.00952381 </v>
   <v>       0.00952381 </v>
   <v>       0.00952381 </v>
   <v>       0.00952381 </v>
   <v>       0.00952381 </v>
   <v>       0.00952381 </v>
   <v>       0.00952381 </v>
   <v>       0.00952381 </v>
   <v>       0.00952381 </v>
   <v>       0.00952381 </v>
   <v>       0.00952381 </v>
   <v>       0.00952381 </v>
   <v>       0.00952381 </v>
   <v>       0.00952381 </v>
   <v>       0.00952381 </v>
   <v>       0.00952381 </v>
   <v>       0.00952381 </v>
   <v>       0.00952381 </v>
   <v>       0.00952381 </v>
   <v>       0.00952381 </v>
  </varray>
  <varray name="tetrahedronlist"  type="int" >
   <v type="int" >        2       25       59       60      101 </v>
   <v type="int" >        2       24       25       59      101 </v>
   <v type="int" >        2       24       25       66      101 </v>
   <v type="int" >        2       25       60      101      102 </v>
   <v type="int" >        2       25       67      101      102 </v>
   <v type="int" >        2       25       66       67      101 </v>
   <v type="int" >        2       84       95       96      103 </v>
   <v type="int" >        2       84       95      102      103 </v>
   <v type="int" >        2       77       84      102      103 </v>
   <v type="int" >        2       83       84       96      103 </v>
   <v type="int" >        2       76       83       84      103 </v>
   <v type="int" >        2       76       77       84      103 </v>
   <v type="int" >        2       48       82       89       90 </v>
   <v type="int" >        2       48       82       83       90 </v>
   <v type="int" >        2       41       48       82       83 </v>
   <v type="int" >        2       47       48       82       89 </v>
   <v type="int" >        2       40       47       48       82 </v>
   <v type="int" >        2       40       41       48       82 </v>
   <v type="int" >        2       16       46       53       54 </v>
   <v type="int" >        2       16       46       47       54 </v>
   <v type="int" >        2       16       22       46       47 </v>
   <v type="int" >        2       16       17       46       53 </v>
   <v type="int" >        2       16       17       21       46 </v>
   <v type="int" >        2       16       21       22       46 </v>
   <v type="int" >        2       10       11       18       35 </v>
   <v type="int" >        2       10       17       18       35 </v>
   <v type="int" >        2       17       18       35       42 </v>
   <v type="int" >        2       11       18       35       36 </v>
   <v type="int" >        2       18       35       36       43 </v>
   <v type="int" >        2       18       35       42       43 </v>
   <v type="int" >        2       23       29       30       71 </v>
   <v type="int" >        2       29       30       36       71 </v>
   <v type="int" >        2       30       36       71       78 </v>
   <v type="int" >        2       23       30       65       71 </v>
   <v type="int" >        2       30       65       71       72 </v>
   <v type="int" >        2       30       71       72       78 </v>
   <v type="int" >        2       66       72      100      101 </v>
   <v type="int" >        2       65       66       72      100 </v>
   <v type="int" >        2       65       65       66       72 </v>
   <v type="int" >        2       66       72       78      101 </v>
   <v type="int" >        2       66       71       72       78 </v>
   <v type="int" >        2       65       66       71       72 </v>
   <v type="int" >        2       43       77       84       85 </v>
   <v type="int" >        2       43       77       78       85 </v>
   <v type="int" >        2       36       43       77       78 </v>
   <v type="int" >        2       42       43       77       84 </v>
   <v type="int" >        2       35       42       43       77 </v>
   <v type="int" >        2       35       36       43       77 </v>
   <v type="int" >        2       21       41       48       49 </v>
   <v type="int" >        2       21       41       42       49 </v>
   <v type="int" >        2       17       21       41       42 </v>
   <v type="int" >        2       21       22       41       48 </v>
   <v type="int" >        2       16       21       22       41 </v>
   <v type="int" >        2       16       17       21       41 </v>
   <v type="int" >        2       15       16       22       40 </v>
   <v type="int" >        2       15       22       22       40 </v>
   <v type="int" >        2       22       22       40       47 </v>
   <v type="int" >        2       16       22       40       41 </v>
   <v type="int" >        2       22       40       41       48 </v>
   <v type="int" >        2       22       40       47       48 </v>
   <v type="int" >        2       34       35       42       76 </v>
   <v type="int" >        2       34       41       42       76 </v>
   <v type="int" >        2       41       42       76       83 </v>
   <v type="int" >        2       35       42       76       77 </v>
   <v type="int" >        2       42       76       77       84 </v>
   <v type="int" >        2       42       76       83       84 </v>
   <v type="int" >        2       67       70       71       78 </v>
   <v type="int" >        2       67       70       77       78 </v>
   <v type="int" >        2       67       77       78      102 </v>
   <v type="int" >        2       66       67       71       78 </v>
   <v type="int" >        2       66       67       78      101 </v>
   <v type="int" >        2       67       78      101      102 </v>
   <v type="int" >        2       31       65       72       73 </v>
   <v type="int" >        2       31       65       66       73 </v>
   <v type="int" >        2       24       31       65       66 </v>
   <v type="int" >        2       30       31       65       72 </v>
   <v type="int" >        2       23       30       31       65 </v>
   <v type="int" >        2       23       24       31       65 </v>
   <v type="int" >        2       12       36       37       43 </v>
   <v type="int" >        2       12       30       36       37 </v>
   <v type="int" >        2        5       12       30       36 </v>
   <v type="int" >        2       12       18       36       43 </v>
   <v type="int" >        2       11       12       18       36 </v>
   <v type="int" >        2        5       11       12       36 </v>
   <v type="int" >        2       17       20       21       45 </v>
   <v type="int" >        2       17       18       20       45 </v>
   <v type="int" >        2       17       18       45       52 </v>
   <v type="int" >        2       17       21       45       46 </v>
   <v type="int" >        2       17       45       46       53 </v>
   <v type="int" >        2       17       45       52       53 </v>
   <v type="int" >        2       39       40       47       81 </v>
   <v type="int" >        2       39       46       47       81 </v>
   <v type="int" >        2       46       47       81       88 </v>
   <v type="int" >        2       40       47       81       82 </v>
   <v type="int" >        2       47       81       82       89 </v>
   <v type="int" >        2       47       81       88       89 </v>
   <v type="int" >        2       75       76       83      104 </v>
   <v type="int" >        2       75       82       83      104 </v>
   <v type="int" >        2       82       83       97      104 </v>
   <v type="int" >        2       76       83      103      104 </v>
   <v type="int" >        2       83       96      103      104 </v>
   <v type="int" >        2       83       96       97      104 </v>
   <v type="int" >        2       26       67       68      102 </v>
   <v type="int" >        2       26       68      102      103 </v>
   <v type="int" >        2       26       61      102      103 </v>
   <v type="int" >        2       25       26       67      102 </v>
   <v type="int" >        2       25       26       60      102 </v>
   <v type="int" >        2       26       60       61      102 </v>
   <v type="int" >        2        7       24       31       32 </v>
   <v type="int" >        2        7       24       25       32 </v>
   <v type="int" >        2        3        7       24       25 </v>
   <v type="int" >        2        6        7       24       31 </v>
   <v type="int" >        2        2        6        7       24 </v>
   <v type="int" >        2        2        3        7       24 </v>
   <v type="int" >        2        5       12       13       57 </v>
   <v type="int" >        2        5        6       13       57 </v>
   <v type="int" >        2        5        6       57       64 </v>
   <v type="int" >        2        5       12       51       57 </v>
   <v type="int" >        2        5       51       57       58 </v>
   <v type="int" >        2        5       57       58       64 </v>
   <v type="int" >        2       44       45       52       86 </v>
   <v type="int" >        2       44       51       52       86 </v>
   <v type="int" >        2       51       52       86       93 </v>
   <v type="int" >        2       45       52       86       87 </v>
   <v type="int" >        2       52       86       87       94 </v>
   <v type="int" >        2       52       86       93       94 </v>
   <v type="int" >        2       80       81       88       99 </v>
   <v type="int" >        2       80       87       88       99 </v>
   <v type="int" >        2       87       88       92       99 </v>
   <v type="int" >        2       81       88       98       99 </v>
   <v type="int" >        2       88       91       98       99 </v>
   <v type="int" >        2       88       91       92       99 </v>
   <v type="int" >        2       63       97      104      105 </v>
   <v type="int" >        2       63       97       98      105 </v>
   <v type="int" >        2       56       63       97       98 </v>
   <v type="int" >        2       62       63       97      104 </v>
   <v type="int" >        2       55       62       63       97 </v>
   <v type="int" >        2       55       56       63       97 </v>
   <v type="int" >        2        4       26       27       61 </v>
   <v type="int" >        2        4       27       61       62 </v>
   <v type="int" >        2        4        8       61       62 </v>
   <v type="int" >        2        4        4       26       61 </v>
   <v type="int" >        2        4        4        9       61 </v>
   <v type="int" >        2        4        8        9       61 </v>
   <v type="int" >        2        3        7        8       62 </v>
   <v type="int" >        2        3        4        8       62 </v>
   <v type="int" >        2        3        4       27       62 </v>
   <v type="int" >        2        3        7       62       63 </v>
   <v type="int" >        2        3       28       62       63 </v>
   <v type="int" >        2        3       27       28       62 </v>
   <v type="int" >        2       56       57       64       98 </v>
   <v type="int" >        2       56       63       64       98 </v>
   <v type="int" >        2       63       64       98      105 </v>
   <v type="int" >        2       57       64       98       99 </v>
   <v type="int" >        2       64       98       99      106 </v>
   <v type="int" >        2       64       98      105      106 </v>
   <v type="int" >        2       86       87       92       93 </v>
   <v type="int" >        2       87       92       93       99 </v>
   <v type="int" >        2       80       87       93       99 </v>
   <v type="int" >        2       86       86       87       93 </v>
   <v type="int" >        2       79       86       87       93 </v>
   <v type="int" >        2       79       80       87       93 </v>
   <v type="int" >        2       51       92       93       99 </v>
   <v type="int" >        2       51       86       92       93 </v>
   <v type="int" >        2       44       51       86       92 </v>
   <v type="int" >        2       51       57       92       99 </v>
   <v type="int" >        2       50       51       57       92 </v>
   <v type="int" >        2       44       50       51       92 </v>
   <v type="int" >        2        6       56       63       64 </v>
   <v type="int" >        2        6       56       57       64 </v>
   <v type="int" >        2        6       13       56       57 </v>
   <v type="int" >        2        6        7       56       63 </v>
   <v type="int" >        2        6        7       14       56 </v>
   <v type="int" >        2        6       13       14       56 </v>
   <v type="int" >        2        3        4        8       25 </v>
   <v type="int" >        2        3        7        8       25 </v>
   <v type="int" >        2        7        8       25       32 </v>
   <v type="int" >        2        4        8       25       26 </v>
   <v type="int" >        2        8       25       26       33 </v>
   <v type="int" >        2        8       25       32       33 </v>
   <v type="int" >        2       27       61       62      103 </v>
   <v type="int" >        2       26       27       61      103 </v>
   <v type="int" >        2       26       27       68      103 </v>
   <v type="int" >        2       27       62      103      104 </v>
   <v type="int" >        2       27       69      103      104 </v>
   <v type="int" >        2       27       68       69      103 </v>
   <v type="int" >        2       82       97       98      105 </v>
   <v type="int" >        2       82       97      104      105 </v>
   <v type="int" >        2       75       82      104      105 </v>
   <v type="int" >        2       81       82       98      105 </v>
   <v type="int" >        2       74       81       82      105 </v>
   <v type="int" >        2       74       75       82      105 </v>
   <v type="int" >        2       46       80       87       88 </v>
   <v type="int" >        2       46       80       81       88 </v>
   <v type="int" >        2       39       46       80       81 </v>
   <v type="int" >        2       45       46       80       87 </v>
   <v type="int" >        2       38       45       46       80 </v>
   <v type="int" >        2       38       39       46       80 </v>
   <v type="int" >        2       18       44       51       52 </v>
   <v type="int" >        2       18       44       45       52 </v>
   <v type="int" >        2       18       20       44       45 </v>
   <v type="int" >        2       12       18       44       51 </v>
   <v type="int" >        2       12       18       19       44 </v>
   <v type="int" >        2       18       19       20       44 </v>
   <v type="int" >        2        5        6       13       30 </v>
   <v type="int" >        2        5       12       13       30 </v>
   <v type="int" >        2       12       13       30       37 </v>
   <v type="int" >        2        6       13       30       31 </v>
   <v type="int" >        2       13       30       31       38 </v>
   <v type="int" >        2       13       30       37       38 </v>
   <v type="int" >        2       24       25       32       66 </v>
   <v type="int" >        2       24       31       32       66 </v>
   <v type="int" >        2       31       32       66       73 </v>
   <v type="int" >        2       25       32       66       67 </v>
   <v type="int" >        2       32       66       67       74 </v>
   <v type="int" >        2       32       66       73       74 </v>
   <v type="int" >        2       68       77      102      103 </v>
   <v type="int" >        2       67       68       77      102 </v>
   <v type="int" >        2       67       68       70       77 </v>
   <v type="int" >        2       68       76       77      103 </v>
   <v type="int" >        2       68       69       76       77 </v>
   <v type="int" >        2       68       69       70       77 </v>
   <v type="int" >        2       41       75       82       83 </v>
   <v type="int" >        2       41       75       76       83 </v>
   <v type="int" >        2       34       41       75       76 </v>
   <v type="int" >        2       40       41       75       82 </v>
   <v type="int" >        2       33       40       41       75 </v>
   <v type="int" >        2       33       34       41       75 </v>
   <v type="int" >        2       22       39       46       47 </v>
   <v type="int" >        2       22       39       40       47 </v>
   <v type="int" >        2       15       22       39       40 </v>
   <v type="int" >        2       21       22       39       46 </v>
   <v type="int" >        2       14       21       22       39 </v>
   <v type="int" >        2       14       15       22       39 </v>
   <v type="int" >        2       17       18       20       42 </v>
   <v type="int" >        2       17       20       21       42 </v>
   <v type="int" >        2       20       21       42       49 </v>
   <v type="int" >        2       18       20       42       43 </v>
   <v type="int" >        2       20       42       43       50 </v>
   <v type="int" >        2       20       42       49       50 </v>
   <v type="int" >        2       30       36       37       78 </v>
   <v type="int" >        2       36       37       43       78 </v>
   <v type="int" >        2       37       43       78       85 </v>
   <v type="int" >        2       30       37       72       78 </v>
   <v type="int" >        2       37       72       78       79 </v>
   <v type="int" >        2       37       78       79       85 </v>
   <v type="int" >        2       65       65       66       73 </v>
   <v type="int" >        2       65       65       72       73 </v>
   <v type="int" >        2       65       72       73      100 </v>
   <v type="int" >        2       65       66       71       73 </v>
   <v type="int" >        2       65       71       73      106 </v>
   <v type="int" >        2       65       73      100      106 </v>
   <v type="int" >        2       36       70       77       78 </v>
   <v type="int" >        2       36       70       71       78 </v>
   <v type="int" >        2       29       36       70       71 </v>
   <v type="int" >        2       35       36       70       77 </v>
   <v type="int" >        2       28       35       36       70 </v>
   <v type="int" >        2       28       29       36       70 </v>
   <v type="int" >        2       17       34       41       42 </v>
   <v type="int" >        2       17       34       35       42 </v>
   <v type="int" >        2       10       17       34       35 </v>
   <v type="int" >        2       16       17       34       41 </v>
   <v type="int" >        2        9       16       17       34 </v>
   <v type="int" >        2        9       10       17       34 </v>
   <v type="int" >        2       15       22       22       47 </v>
   <v type="int" >        2       15       16       22       47 </v>
   <v type="int" >        2       15       16       47       54 </v>
   <v type="int" >        2       15       22       47       48 </v>
   <v type="int" >        2       15       47       48       55 </v>
   <v type="int" >        2       15       47       54       55 </v>
   <v type="int" >        2       41       42       49       83 </v>
   <v type="int" >        2       41       48       49       83 </v>
   <v type="int" >        2       48       49       83       90 </v>
   <v type="int" >        2       42       49       83       84 </v>
   <v type="int" >        2       49       83       84       91 </v>
   <v type="int" >        2       49       83       90       91 </v>
   <v type="int" >        2       77       78       85      102 </v>
   <v type="int" >        2       77       84       85      102 </v>
   <v type="int" >        2       84       85       95      102 </v>
   <v type="int" >        2       78       85      101      102 </v>
   <v type="int" >        2       85       94      101      102 </v>
   <v type="int" >        2       85       94       95      102 </v>
   <v type="int" >        2       24       65       66      100 </v>
   <v type="int" >        2       24       66      100      101 </v>
   <v type="int" >        2       24       59      100      101 </v>
   <v type="int" >        2       23       24       65      100 </v>
   <v type="int" >        2       23       24       58      100 </v>
   <v type="int" >        2       24       58       59      100 </v>
   <v type="int" >        2        5       29       30       36 </v>
   <v type="int" >        2        5       23       29       30 </v>
   <v type="int" >        2        1        5       23       29 </v>
   <v type="int" >        2        5       11       29       36 </v>
   <v type="int" >        2        2        5       11       29 </v>
   <v type="int" >        2        1        2        5       29 </v>
   <v type="int" >        2       10       17       18       52 </v>
   <v type="int" >        2       10       11       18       52 </v>
   <v type="int" >        2       10       11       52       59 </v>
   <v type="int" >        2       10       17       52       53 </v>
   <v type="int" >        2       10       52       53       60 </v>
   <v type="int" >        2       10       52       59       60 </v>
   <v type="int" >        2       46       47       54       88 </v>
   <v type="int" >        2       46       53       54       88 </v>
   <v type="int" >        2       53       54       88       95 </v>
   <v type="int" >        2       47       54       88       89 </v>
   <v type="int" >        2       54       88       89       96 </v>
   <v type="int" >        2       54       88       95       96 </v>
   <v type="int" >        2       82       83       90       97 </v>
   <v type="int" >        2       82       89       90       97 </v>
   <v type="int" >        4       89       90       90       97 </v>
   <v type="int" >        2       83       90       96       97 </v>
   <v type="int" >        2       89       90       96       97 </v>
   <v type="int" >        2       61       95      102      103 </v>
   <v type="int" >        2       61       95       96      103 </v>
   <v type="int" >        2       54       61       95       96 </v>
   <v type="int" >        2       60       61       95      102 </v>
   <v type="int" >        2       53       60       61       95 </v>
   <v type="int" >        2       53       54       61       95 </v>
   <v type="int" >        2        3       24       25       59 </v>
   <v type="int" >        2        3       25       59       60 </v>
   <v type="int" >        2        3       10       59       60 </v>
   <v type="int" >        2        2        3       24       59 </v>
   <v type="int" >        2        2        3       11       59 </v>
   <v type="int" >        2        3       10       11       59 </v>
   <v type="int" >        2        1        5        6       64 </v>
   <v type="int" >        2        1        2        6       64 </v>
   <v type="int" >        2        1        2       29       64 </v>
   <v type="int" >        2        1        5       58       64 </v>
   <v type="int" >        2        1       23       58       64 </v>
   <v type="int" >        2        1       23       29       64 </v>
   <v type="int" >        2       51       52       59       93 </v>
   <v type="int" >        2       51       58       59       93 </v>
   <v type="int" >        2       58       59       93      100 </v>
   <v type="int" >        2       52       59       93       94 </v>
   <v type="int" >        2       59       93       94      101 </v>
   <v type="int" >        2       59       93      100      101 </v>
   <v type="int" >        2       87       88       92       95 </v>
   <v type="int" >        2       87       92       94       95 </v>
   <v type="int" >        2       85       92       94       95 </v>
   <v type="int" >        2       88       91       92       95 </v>
   <v type="int" >        2       84       91       92       95 </v>
   <v type="int" >        2       84       85       92       95 </v>
   <v type="int" >        2       56       90       97       98 </v>
   <v type="int" >        2       56       90       91       98 </v>
   <v type="int" >        2       49       56       90       91 </v>
   <v type="int" >        2       55       56       90       97 </v>
   <v type="int" >        2       48       55       56       90 </v>
   <v type="int" >        2       48       49       56       90 </v>
   <v type="int" >        2        8       54       61       62 </v>
   <v type="int" >        2        8       54       55       62 </v>
   <v type="int" >        2        8       15       54       55 </v>
   <v type="int" >        2        8        9       54       61 </v>
   <v type="int" >        2        8        9       16       54 </v>
   <v type="int" >        2        8       15       16       54 </v>
   <v type="int" >        2        3        4       10       27 </v>
   <v type="int" >        2        4        9       10       27 </v>
   <v type="int" >        2        9       10       27       34 </v>
   <v type="int" >        2        3       10       27       28 </v>
   <v type="int" >        2       10       27       28       35 </v>
   <v type="int" >        2       10       27       34       35 </v>
   <v type="int" >        2       29       63       64      105 </v>
   <v type="int" >        2       28       29       63      105 </v>
   <v type="int" >        2       28       29       70      105 </v>
   <v type="int" >        2       29       64      105      106 </v>
   <v type="int" >        2       29       71      105      106 </v>
   <v type="int" >        2       29       70       71      105 </v>
   <v type="int" >        2       80       93       99      100 </v>
   <v type="int" >        2       80       99      100      106 </v>
   <v type="int" >        2       73       80      100      106 </v>
   <v type="int" >        2       79       80       93      100 </v>
   <v type="int" >        2       72       79       80      100 </v>
   <v type="int" >        2       72       73       80      100 </v>
   <v type="int" >        2       44       85       86       92 </v>
   <v type="int" >        2       44       79       85       86 </v>
   <v type="int" >        2       37       44       79       85 </v>
   <v type="int" >        2       44       50       85       92 </v>
   <v type="int" >        2       43       44       50       85 </v>
   <v type="int" >        2       37       43       44       85 </v>
   <v type="int" >        2       13       49       56       57 </v>
   <v type="int" >        2       13       49       50       57 </v>
   <v type="int" >        2       13       20       49       50 </v>
   <v type="int" >        2       13       14       49       56 </v>
   <v type="int" >        2       13       14       21       49 </v>
   <v type="int" >        2       13       20       21       49 </v>
   <v type="int" >        2        7        8       15       32 </v>
   <v type="int" >        2        7       14       15       32 </v>
   <v type="int" >        2       14       15       32       39 </v>
   <v type="int" >        2        8       15       32       33 </v>
   <v type="int" >        2       15       32       33       40 </v>
   <v type="int" >        2       15       32       39       40 </v>
   <v type="int" >        2       26       27       34       68 </v>
   <v type="int" >        2       26       33       34       68 </v>
   <v type="int" >        2       33       34       68       75 </v>
   <v type="int" >        2       27       34       68       69 </v>
   <v type="int" >        2       34       68       69       76 </v>
   <v type="int" >        2       34       68       75       76 </v>
   <v type="int" >        2       70       75      104      105 </v>
   <v type="int" >        2       69       70       75      104 </v>
   <v type="int" >        2       68       69       70       75 </v>
   <v type="int" >        2       70       74       75      105 </v>
   <v type="int" >        2       67       70       74       75 </v>
   <v type="int" >        2       67       68       70       75 </v>
   <v type="int" >        2       39       73       80       81 </v>
   <v type="int" >        2       39       73       74       81 </v>
   <v type="int" >        2       32       39       73       74 </v>
   <v type="int" >        2       38       39       73       80 </v>
   <v type="int" >        2       31       38       39       73 </v>
   <v type="int" >        2       31       32       39       73 </v>
   <v type="int" >        2       20       37       44       45 </v>
   <v type="int" >        2       20       37       38       45 </v>
   <v type="int" >        2       13       20       37       38 </v>
   <v type="int" >        2       19       20       37       44 </v>
   <v type="int" >        2       12       19       20       37 </v>
   <v type="int" >        2       12       13       20       37 </v>
   <v type="int" >        2        6       23       30       31 </v>
   <v type="int" >        2        6       23       24       31 </v>
   <v type="int" >        2        2        6       23       24 </v>
   <v type="int" >        2        5        6       23       30 </v>
   <v type="int" >        2        1        5        6       23 </v>
   <v type="int" >        2        1        2        6       23 </v>
   <v type="int" >        2       11       12       18       51 </v>
   <v type="int" >        2        5       11       12       51 </v>
   <v type="int" >        2        5       11       51       58 </v>
   <v type="int" >        2       11       18       51       52 </v>
   <v type="int" >        2       11       51       52       59 </v>
   <v type="int" >        2       11       51       58       59 </v>
   <v type="int" >        2       45       46       53       87 </v>
   <v type="int" >        2       45       52       53       87 </v>
   <v type="int" >        2       52       53       87       94 </v>
   <v type="int" >        2       46       53       87       88 </v>
   <v type="int" >        2       53       87       88       95 </v>
   <v type="int" >        2       53       87       94       95 </v>
   <v type="int" >        2       81       82       89       98 </v>
   <v type="int" >        2       81       88       89       98 </v>
   <v type="int" >        2       88       89       91       98 </v>
   <v type="int" >        2       82       89       97       98 </v>
   <v type="int" >        2       89       90       97       98 </v>
   <v type="int" >        2       89       90       91       98 </v>
   <v type="int" >        2       62       96      103      104 </v>
   <v type="int" >        2       62       96       97      104 </v>
   <v type="int" >        2       55       62       96       97 </v>
   <v type="int" >        2       61       62       96      103 </v>
   <v type="int" >        2       54       61       62       96 </v>
   <v type="int" >        2       54       55       62       96 </v>
   <v type="int" >        2        4       25       26       60 </v>
   <v type="int" >        2        4       26       60       61 </v>
   <v type="int" >        2        4        9       60       61 </v>
   <v type="int" >        2        3        4       25       60 </v>
   <v type="int" >        2        3        4       10       60 </v>
   <v type="int" >        2        4        9       10       60 </v>
   <v type="int" >        2        2        6        7       63 </v>
   <v type="int" >        2        2        3        7       63 </v>
   <v type="int" >        2        2        3       28       63 </v>
   <v type="int" >        2        2        6       63       64 </v>
   <v type="int" >        2        2       29       63       64 </v>
   <v type="int" >        2        2       28       29       63 </v>
   <v type="int" >        2       51       57       58       99 </v>
   <v type="int" >        2       57       58       64       99 </v>
   <v type="int" >        2       58       64       99      106 </v>
   <v type="int" >        2       51       58       93       99 </v>
   <v type="int" >        2       58       93       99      100 </v>
   <v type="int" >        2       58       99      100      106 </v>
   <v type="int" >        2       86       86       87       94 </v>
   <v type="int" >        2       86       86       93       94 </v>
   <v type="int" >        2       79       86       93       94 </v>
   <v type="int" >        2       86       87       92       94 </v>
   <v type="int" >        2       85       86       92       94 </v>
   <v type="int" >        2       79       85       86       94 </v>
   <v type="int" >        2       57       91       98       99 </v>
   <v type="int" >        2       57       91       92       99 </v>
   <v type="int" >        2       50       57       91       92 </v>
   <v type="int" >        2       56       57       91       98 </v>
   <v type="int" >        2       49       56       57       91 </v>
   <v type="int" >        2       49       50       57       91 </v>
   <v type="int" >        2        7       55       62       63 </v>
   <v type="int" >        2        7       55       56       63 </v>
   <v type="int" >        2        7       14       55       56 </v>
   <v type="int" >        2        7        8       55       62 </v>
   <v type="int" >        2        7        8       15       55 </v>
   <v type="int" >        2        7       14       15       55 </v>
   <v type="int" >        2        4        4        9       26 </v>
   <v type="int" >        2        4        8        9       26 </v>
   <v type="int" >        2        8        9       26       33 </v>
   <v type="int" >        2        4        9       26       27 </v>
   <v type="int" >        2        9       26       27       34 </v>
   <v type="int" >        2        9       26       33       34 </v>
   <v type="int" >        2       28       62       63      104 </v>
   <v type="int" >        2       27       28       62      104 </v>
   <v type="int" >        2       27       28       69      104 </v>
   <v type="int" >        2       28       63      104      105 </v>
   <v type="int" >        2       28       70      104      105 </v>
   <v type="int" >        2       28       69       70      104 </v>
   <v type="int" >        2       81       98       99      106 </v>
   <v type="int" >        2       81       98      105      106 </v>
   <v type="int" >        2       74       81      105      106 </v>
   <v type="int" >        2       80       81       99      106 </v>
   <v type="int" >        2       73       80       81      106 </v>
   <v type="int" >        2       73       74       81      106 </v>
   <v type="int" >        2       45       79       86       87 </v>
   <v type="int" >        2       45       79       80       87 </v>
   <v type="int" >        2       38       45       79       80 </v>
   <v type="int" >        2       44       45       79       86 </v>
   <v type="int" >        2       37       44       45       79 </v>
   <v type="int" >        2       37       38       45       79 </v>
   <v type="int" >        2       12       50       51       57 </v>
   <v type="int" >        2       12       44       50       51 </v>
   <v type="int" >        2       12       19       44       50 </v>
   <v type="int" >        2       12       13       50       57 </v>
   <v type="int" >        2       12       13       20       50 </v>
   <v type="int" >        2       12       19       20       50 </v>
   <v type="int" >        2        6        7       14       31 </v>
   <v type="int" >        2        6       13       14       31 </v>
   <v type="int" >        2       13       14       31       38 </v>
   <v type="int" >        2        7       14       31       32 </v>
   <v type="int" >        2       14       31       32       39 </v>
   <v type="int" >        2       14       31       38       39 </v>
   <v type="int" >        2       25       26       33       67 </v>
   <v type="int" >        2       25       32       33       67 </v>
   <v type="int" >        2       32       33       67       74 </v>
   <v type="int" >        2       26       33       67       68 </v>
   <v type="int" >        2       33       67       68       75 </v>
   <v type="int" >        2       33       67       74       75 </v>
   <v type="int" >        2       69       76      103      104 </v>
   <v type="int" >        2       68       69       76      103 </v>
   <v type="int" >        4       68       69       69       76 </v>
   <v type="int" >        2       69       75       76      104 </v>
   <v type="int" >        2       68       69       75       76 </v>
   <v type="int" >        2       40       74       81       82 </v>
   <v type="int" >        2       40       74       75       82 </v>
   <v type="int" >        2       33       40       74       75 </v>
   <v type="int" >        2       39       40       74       81 </v>
   <v type="int" >        2       32       39       40       74 </v>
   <v type="int" >        2       32       33       40       74 </v>
   <v type="int" >        2       21       38       45       46 </v>
   <v type="int" >        2       21       38       39       46 </v>
   <v type="int" >        2       14       21       38       39 </v>
   <v type="int" >        2       20       21       38       45 </v>
   <v type="int" >        2       13       20       21       38 </v>
   <v type="int" >        2       13       14       21       38 </v>
   <v type="int" >        2       12       18       19       43 </v>
   <v type="int" >        2       18       19       20       43 </v>
   <v type="int" >        2       19       20       43       50 </v>
   <v type="int" >        2       12       19       37       43 </v>
   <v type="int" >        2       19       37       43       44 </v>
   <v type="int" >        2       19       43       44       50 </v>
   <v type="int" >        2       30       31       38       72 </v>
   <v type="int" >        2       30       37       38       72 </v>
   <v type="int" >        2       37       38       72       79 </v>
   <v type="int" >        2       31       38       72       73 </v>
   <v type="int" >        2       38       72       73       80 </v>
   <v type="int" >        2       38       72       79       80 </v>
   <v type="int" >        2       66       67       71       74 </v>
   <v type="int" >        2       66       71       73       74 </v>
   <v type="int" >        2       71       73       74      106 </v>
   <v type="int" >        2       67       70       71       74 </v>
   <v type="int" >        2       70       71       74      105 </v>
   <v type="int" >        2       71       74      105      106 </v>
   <v type="int" >        2       35       69       76       77 </v>
   <v type="int" >        2       35       69       70       77 </v>
   <v type="int" >        2       28       35       69       70 </v>
   <v type="int" >        2       34       35       69       76 </v>
   <v type="int" >        2       27       34       35       69 </v>
   <v type="int" >        2       27       28       35       69 </v>
   <v type="int" >        2       16       33       40       41 </v>
   <v type="int" >        2       16       33       34       41 </v>
   <v type="int" >        2        9       16       33       34 </v>
   <v type="int" >        2       15       16       33       40 </v>
   <v type="int" >        2        8       15       16       33 </v>
   <v type="int" >        2        8        9       16       33 </v>
   <v type="int" >        2       14       21       22       48 </v>
   <v type="int" >        2       14       15       22       48 </v>
   <v type="int" >        2       14       15       48       55 </v>
   <v type="int" >        2       14       21       48       49 </v>
   <v type="int" >        2       14       48       49       56 </v>
   <v type="int" >        2       14       48       55       56 </v>
   <v type="int" >        2       42       43       50       84 </v>
   <v type="int" >        2       42       49       50       84 </v>
   <v type="int" >        2       49       50       84       91 </v>
   <v type="int" >        2       43       50       84       85 </v>
   <v type="int" >        2       50       84       85       92 </v>
   <v type="int" >        2       50       84       91       92 </v>
   <v type="int" >        2       72       78       79      101 </v>
   <v type="int" >        2       78       79       85      101 </v>
   <v type="int" >        2       79       85       94      101 </v>
   <v type="int" >        2       72       79      100      101 </v>
   <v type="int" >        2       79       93      100      101 </v>
   <v type="int" >        2       79       93       94      101 </v>
   <v type="int" >        2       23       65       71      106 </v>
   <v type="int" >        2       23       65      100      106 </v>
   <v type="int" >        2       23       58      100      106 </v>
   <v type="int" >        2       23       29       71      106 </v>
   <v type="int" >        2       23       29       64      106 </v>
   <v type="int" >        2       23       58       64      106 </v>
   <v type="int" >        2       11       28       35       36 </v>
   <v type="int" >        2       11       28       29       36 </v>
   <v type="int" >        2        2       11       28       29 </v>
   <v type="int" >        2       10       11       28       35 </v>
   <v type="int" >        2        3       10       11       28 </v>
   <v type="int" >        2        2        3       11       28 </v>
   <v type="int" >        2        9       16       17       53 </v>
   <v type="int" >        2        9       10       17       53 </v>
   <v type="int" >        2        9       10       53       60 </v>
   <v type="int" >        2        9       16       53       54 </v>
   <v type="int" >        2        9       53       54       61 </v>
   <v type="int" >        2        9       53       60       61 </v>
   <v type="int" >        2       47       48       55       89 </v>
   <v type="int" >        2       47       54       55       89 </v>
   <v type="int" >        2       54       55       89       96 </v>
   <v type="int" >        2       48       55       89       90 </v>
   <v type="int" >        2       55       89       90       97 </v>
   <v type="int" >        2       55       89       96       97 </v>
   <v type="int" >        2       83       84       91       96 </v>
   <v type="int" >        2       83       90       91       96 </v>
   <v type="int" >        2       89       90       91       96 </v>
   <v type="int" >        2       84       91       95       96 </v>
   <v type="int" >        2       88       91       95       96 </v>
   <v type="int" >        2       88       89       91       96 </v>
   <v type="int" >        2       60       94      101      102 </v>
   <v type="int" >        2       60       94       95      102 </v>
   <v type="int" >        2       53       60       94       95 </v>
   <v type="int" >        2       59       60       94      101 </v>
   <v type="int" >        2       52       59       60       94 </v>
   <v type="int" >        2       52       53       60       94 </v>
   <v type="int" >        2        2       23       24       58 </v>
   <v type="int" >        2        2       24       58       59 </v>
   <v type="int" >        2        2       11       58       59 </v>
   <v type="int" >        2        1        2       23       58 </v>
   <v type="int" >        2        1        2        5       58 </v>
   <v type="int" >        2        2        5       11       58 </v>
  </varray>
  <i name="volumeweight">      0.00079365 </i>
 </kpoints>
 <parameters>
  <separator name="general" >
   <i type="string" name="SYSTEM">unknown system</i>
   <i type="logical" name="LCOMPAT"> F  </i>
  </separator>
  <separator name="electronic" >
   <i type="string" name="PREC">accura</i>
   <i name="ENMAX">    600.00000000</i>
   <i name="ENAUG">    605.39200000</i>
   <i name="EDIFF">      0.00000500</i>
   <i type="int" name="IALGO">    38</i>
   <i type="int" name="IWAVPR">    11</i>
   <i type="int" name="NBANDS">   128</i>
   <i type="int" name="NBANDSLOW">    -1</i>
   <i type="int" name="NBANDSHIGH">    -1</i>
   <i name="NELECT">     74.00000000</i>
   <i type="int" name="TURBO">     0</i>
   <i type="int" name="IRESTART">     0</i>
   <i type="int" name="NREBOOT">     0</i>
   <i type="int" name="NMIN">     0</i>
   <i name="EREF">      0.00000000</i>
   <separator name="electronic smearing" >
    <i type="int" name="ISMEAR">    -5</i>
    <i name="SIGMA">      0.05000000</i>
    <i name="KSPACING">      0.50000000</i>
    <i type="logical" name="KGAMMA"> T  </i>
    <i type="logical" name="KBLOWUP"> T  </i>
   </separator>
   <separator name="electronic projectors" >
    <i type="logical" name="LREAL"> F  </i>
    <v name="ROPT">      0.00000000      0.00000000      0.00000000</v>
    <i type="int" name="LMAXPAW">  -100</i>
    <i type="int" name="LMAXMIX">     4</i>
    <i type="logical" name="NLSPLINE"> F  </i>
   </separator>
   <separator name="electronic startup" >
    <i type="int" name="ISTART">     0</i>
    <i type="int" name="ICHARG">     2</i>
    <i type="int" name="INIWAV">     1</i>
   </separator>
   <separator name="electronic spin" >
    <i type="int" name="ISPIN">     1</i>
    <i type="logical" name="LNONCOLLINEAR"> F  </i>
    <v name="MAGMOM">      1.00000000      1.00000000      1.00000000      1.00000000      1.00000000      1.00000000      1.00000000      1.00000000      1.00000000      1.00000000      1.00000000      1.00000000</v>
    <i name="NUPDOWN">     -1.00000000</i>
    <i type="logical" name="LSORBIT"> F  </i>
    <v name="SAXIS">      0.00000000      0.00000000      1.00000000</v>
    <i type="logical" name="LSPIRAL"> F  </i>
    <v name="QSPIRAL">      0.00000000      0.00000000      0.00000000</v>
    <i type="logical" name="LZEROZ"> F  </i>
   </separator>
   <separator name="electronic exchange-correlation" >
    <i type="logical" name="LASPH"> T  </i>
    <i type="logical" name="LMETAGGA"> F  </i>
   </separator>
   <separator name="electronic convergence" >
    <i type="int" name="NELM">    60</i>
    <i type="int" name="NELMDL">     0</i>
    <i type="int" name="NELMIN">     4</i>
    <i name="ENINI">    600.00000000</i>
    <separator name="electronic convergence detail" >
     <i type="logical" name="LDIAG"> T  </i>
     <i type="logical" name="LSUBROT"> F  </i>
     <i name="WEIMIN">      0.00100000</i>
     <i name="EBREAK">      0.00000001</i>
     <i name="DEPER">      0.30000000</i>
     <i type="int" name="NRMM">     4</i>
     <i name="TIME">      0.40000000</i>
    </separator>
   </separator>
   <separator name="electronic mixer" >
    <i name="AMIX">      0.40000000</i>
    <i name="BMIX">      1.00000000</i>
    <i name="AMIN">      0.10000000</i>
    <i name="AMIX_MAG">      1.60000000</i>
    <i name="BMIX_MAG">      1.00000000</i>
    <separator name="electronic mixer details" >
     <i type="int" name="IMIX">     4</i>
     <i type="logical" name="MIXFIRST"> F  </i>
     <i type="int" name="MAXMIX">   -45</i>
     <i name="WC">    100.00000000</i>
     <i type="int" name="INIMIX">     1</i>
     <i type="int" name="MIXPRE">     1</i>
     <i type="int" name="MREMOVE">     5</i>
    </separator>
   </separator>
   <separator name="electronic dipolcorrection" >
    <i type="logical" name="LDIPOL"> F  </i>
    <i type="logical" name="LMONO"> F  </i>
    <i type="int" name="IDIPOL">     0</i>
    <i name="EPSILON">      1.00000000</i>
    <v name="DIPOL">   -100.00000000   -100.00000000   -100.00000000</v>
    <i name="EFIELD">      0.00000000</i>
   </separator>
  </separator>
  <separator name="grids" >
   <i type="int" name="NGX">    40</i>
   <i type="int" name="NGY">    48</i>
   <i type="int" name="NGZ">    50</i>
   <i type="int" name="NGXF">    80</i>
   <i type="int" name="NGYF">    96</i>
   <i type="int" name="NGZF">   100</i>
   <i type="logical" name="ADDGRID"> F  </i>
  </separator>
  <separator name="ionic" >
   <i type="int" name="NSW">     1</i>
   <i type="int" name="IBRION">     8</i>
   <i type="int" name="MDALGO">     0</i>
   <i type="int" name="ISIF">     3</i>
   <i name="PSTRESS">      0.00000000</i>
   <i name="EDIFFG">      0.00005000</i>
   <i type="int" name="NFREE">     0</i>
   <i name="POTIM">      0.20000000</i>
   <i name="SMASS">     -3.00000000</i>
   <i name="SCALEE">      1.00000000</i>
  </separator>
  <separator name="ionic md" >
   <i name="TEBEG">      0.00010000</i>
   <i name="TEEND">      0.00010000</i>
   <i type="int" name="NBLOCK">     1</i>
   <i type="int" name="KBLOCK">     1</i>
   <i type="int" name="NPACO">   256</i>
   <i name="APACO">     10.00000000</i>
  </separator>
  <separator name="symmetry" >
   <i type="int" name="ISYM">     2</i>
   <i name="SYMPREC">      0.00001000</i>
  </separator>
  <separator name="dos" >
   <i type="int" name="LORBIT">     0</i>
   <v name="RWIGS">     -1.00000000     -1.00000000     -1.00000000</v>
   <i type="int" name="NEDOS">   301</i>
   <i name="EMIN">     10.00000000</i>
   <i name="EMAX">    -10.00000000</i>
   <i name="EFERMI">      0.00000000</i>
  </separator>
  <separator name="writing" >
   <i type="int" name="NWRITE">     2</i>
   <i type="logical" name="LWAVE"> T  </i>
   <i type="logical" name="LDOWNSAMPLE"> F  </i>
   <i type="logical" name="LCHARG"> T  </i>
   <i type="logical" name="LPARD"> F  </i>
   <i type="logical" name="LVTOT"> F  </i>
   <i type="logical" name="LVHAR"> F  </i>
   <i type="logical" name="LELF"> F  </i>
   <i type="logical" name="LOPTICS"> F  </i>
   <v name="STM">      0.00000000      0.00000000      0.00000000      0.00000000      0.00000000      0.00000000      0.00000000</v>
  </separator>
  <separator name="performance" >
   <i type="int" name="NPAR">   128</i>
   <i type="int" name="NSIM">     4</i>
   <i type="int" name="NBLK">    -1</i>
   <i type="logical" name="LPLANE"> F  </i>
   <i type="logical" name="LSCALAPACK"> T  </i>
   <i type="logical" name="LSCAAWARE"> T  </i>
   <i type="logical" name="LSCALU"> F  </i>
   <i type="logical" name="LASYNC"> F  </i>
   <i type="logical" name="LORBITALREAL"> F  </i>
  </separator>
  <separator name="miscellaneous" >
   <i type="int" name="IDIOT">     3</i>
   <i type="int" name="PHON_NSTRUCT">    -1</i>
   <i type="logical" name="LMUSIC"> F  </i>
   <v name="POMASS">     22.99000000     32.06600000     16.00000000</v>
   <v name="DARWINR">      0.00000000      0.00000000      0.00000000</v>
   <v name="DARWINV">      1.00000000      1.00000000      1.00000000</v>
   <i type="logical" name="LCORR"> T  </i>
  </separator>
  <i type="logical" name="GGA_COMPAT"> T  </i>
  <i type="logical" name="LBERRY"> F  </i>
  <i type="int" name="ICORELEVEL">     0</i>
  <i type="logical" name="LDAU"> F  </i>
  <i type="int" name="I_CONSTRAINED_M">     0</i>
  <separator name="electronic exchange-correlation" >
   <i type="string" name="GGA">--</i>
   <i type="int" name="VOSKOWN">     0</i>
   <i type="logical" name="LHFCALC"> F  </i>
   <i type="string" name="PRECFOCK"></i>
   <i type="logical" name="LSYMGRAD"> F  </i>
   <i type="logical" name="LHFONE"> F  </i>
   <i type="logical" name="LRHFCALC"> F  </i>
   <i type="logical" name="LTHOMAS"> F  </i>
   <i type="logical" name="LMODELHF"> F  </i>
   <i type="logical" name="LFOCKACE"> F  </i>
   <i name="ENCUT4O">     -1.00000000</i>
   <i type="int" name="EXXOEP">     0</i>
   <i type="int" name="FOURORBIT">     0</i>
   <i name="AEXX">      0.00000000</i>
   <i name="HFALPHA">      0.00000000</i>
   <i name="MCALPHA">      0.00000000</i>
   <i name="ALDAX">      1.00000000</i>
   <i name="AGGAX">      1.00000000</i>
   <i name="ALDAC">      1.00000000</i>
   <i name="AGGAC">      1.00000000</i>
   <i type="int" name="NKREDX">     1</i>
   <i type="int" name="NKREDY">     1</i>
   <i type="int" name="NKREDZ">     1</i>
   <i type="logical" name="SHIFTRED"> F  </i>
   <i type="logical" name="ODDONLY"> F  </i>
   <i type="logical" name="EVENONLY"> F  </i>
   <i type="int" name="LMAXFOCK">     0</i>
   <i type="int" name="NMAXFOCKAE">     0</i>
   <i type="logical" name="LFOCKAEDFT"> F  </i>
   <i name="HFSCREEN">      0.00000000</i>
   <i name="HFSCREENC">      0.00000000</i>
   <i type="int" name="NBANDSGWLOW">     0</i>
  </separator>
  <separator name="vdW DFT" >
   <i type="logical" name="LUSE_VDW"> F  </i>
   <i type="int" name="IVDW_NL">     1</i>
   <i type="logical" name="LSPIN_VDW"> F  </i>
   <i name="Zab_VDW">     -0.84910000</i>
   <i name="PARAM1">      0.12340000</i>
   <i name="PARAM2">      1.00000000</i>
   <i name="PARAM3">      0.00000000</i>
  </separator>
  <separator name="model GW" >
   <i type="int" name="MODEL_GW">     0</i>
   <i name="MODEL_EPS0">      7.59402140</i>
   <i name="MODEL_ALPHA">      1.00000000</i>
  </separator>
  <separator name="linear response parameters" >
   <i type="logical" name="LEPSILON"> T  </i>
   <i type="logical" name="LRPA"> F  </i>
   <i type="logical" name="LNABLA"> F  </i>
   <i type="logical" name="LVEL"> F  </i>
   <i name="CSHIFT">      0.10000000</i>
   <i name="OMEGAMAX">     -1.00000000</i>
   <i name="DEG_THRESHOLD">      0.00200000</i>
   <i name="RTIME">     -0.10000000</i>
   <i name="WPLASMAI">      0.00000000</i>
   <v name="DFIELD">      0.00000000      0.00000000      0.00000000</v>
   <v name="WPLASMA">      0.00000000      0.00000000      0.00000000      0.00000000      0.00000000      0.00000000      0.00000000      0.00000000      0.00000000</v>
  </separator>
  <separator name="orbital magnetization" >
   <i type="logical" name="NUCIND"> F  </i>
   <v name="MAGPOS">      0.00000000      0.00000000      0.00000000</v>
   <i type="logical" name="LNICSALL"> T  </i>
   <i type="logical" name="ORBITALMAG"> F  </i>
   <i type="logical" name="LMAGBLOCH"> F  </i>
   <i type="logical" name="LCHIMAG"> F  </i>
   <i type="logical" name="LGAUGE"> T  </i>
   <i type="int" name="MAGATOM">     0</i>
   <v name="MAGDIPOL">      0.00000000      0.00000000      0.00000000</v>
   <v name="AVECCONST">      0.00000000      0.00000000      0.00000000</v>
  </separator>
  <separator name="response functions" >
   <i type="logical" name="LALL_IN_ONE"> F  </i>
   <i type="int" name="IALL_IN_ONE">    -1</i>
   <i type="int" name="NBANDS_WAVE">    -1</i>
   <i type="logical" name="LFINITE_TEMPERATURE"> F  </i>
   <i type="logical" name="LADDER"> T  </i>
   <i type="logical" name="LRPAFORCE"> F  </i>
   <i type="logical" name="LFXC"> F  </i>
   <i type="logical" name="LHARTREE"> T  </i>
   <i type="int" name="IBSE">     0</i>
   <v type="int" name="KPOINT">    -1     0     0     0</v>
   <i type="logical" name="LTCTC"> F  </i>
   <i type="logical" name="LTCTE"> F  </i>
   <i type="logical" name="LTETE"> F  </i>
   <i type="logical" name="LTRIPLET"> F  </i>
   <i type="logical" name="LFXCEPS"> F  </i>
   <i type="logical" name="LFXHEG"> F  </i>
   <i type="int" name="NATURALO">     2</i>
   <i type="logical" name="LHOLEGF"> F  </i>
   <i type="logical" name="L2ORDER"> F  </i>
   <i type="logical" name="LDMP1"> F  </i>
   <i type="logical" name="LMP2LT"> F  </i>
   <i type="logical" name="LSMP2LT"> F  </i>
   <i type="logical" name="LGWLF"> F  </i>
   <i name="ENCUTGW">     -1.60000002</i>
   <i name="ENCUTGWSOFT">     -1.60000002</i>
   <i name="ENCUTLF">     -1.00000000</i>
   <i type="logical" name="LESF_SPLINES"> F  </i>
   <i type="int" name="LMAXMP2">    -1</i>
   <i name="SCISSOR">      0.00000000</i>
   <i type="int" name="NOMEGA">     0</i>
   <i type="int" name="NOMEGAR">     0</i>
   <i type="int" name="NBANDSGW">    -1</i>
   <i type="int" name="NBANDSO">    -1</i>
   <i type="int" name="NBANDSV">    -1</i>
   <i type="int" name="NELMGW">     1</i>
   <i type="int" name="NELMHF">     1</i>
   <i type="int" name="DIM">     3</i>
   <i type="int" name="IESPILON">     4</i>
   <i type="int" name="ANTIRES">     0</i>
   <i name="OMEGAMAX">    -30.00000000</i>
   <i name="OMEGAMIN">    -30.00000000</i>
   <i name="OMEGATL">   -200.00000000</i>
   <i type="int" name="OMEGAGRID">     0</i>
   <i name="CSHIFT">     -0.10000000</i>
   <i type="logical" name="LSELFENERGY"> F  </i>
   <i type="logical" name="LSPECTRAL"> F  </i>
   <i type="logical" name="LSPECTRALGW"> F  </i>
   <i type="logical" name="LSINGLES"> F  </i>
   <i type="logical" name="LFERMIGW"> F  </i>
   <i type="logical" name="ODDONLYGW"> F  </i>
   <i type="logical" name="EVENONLYGW"> F  </i>
   <i type="int" name="NKREDLFX">     1</i>
   <i type="int" name="NKREDLFY">     1</i>
   <i type="int" name="NKREDLFZ">     1</i>
   <i type="int" name="MAXMEM">  2800</i>
   <i type="int" name="TELESCOPE">     0</i>
   <i type="int" name="NTAUPAR">    -1</i>
   <i type="int" name="NOMEGAPAR">    -1</i>
   <i name="DAMP_NEWTON">      0.80000001</i>
   <i name="LAMBDA">      1.00000000</i>
  </separator>
  <separator name="External order field" >
   <i name="OFIELD_KAPPA">      0.00000000</i>
   <v name="OFIELD_K">      0.00000000      0.00000000      0.00000000</v>
   <i name="OFIELD_Q6_NEAR">      0.00000000</i>
   <i name="OFIELD_Q6_FAR">      0.00000000</i>
   <i name="OFIELD_A">      0.00000000</i>
  </separator>
  <separator name="optional k-points parameters" >
   <i type="int" name="KPOINTS_OPT_MODE">     1</i>
   <i type="logical" name="LKPOINTS_OPT"> F  </i>
  </separator>
  <separator name="solvation model" >
   <i type="logical" name="LSOL"> F  </i>
  </separator>
 </parameters>
 <atominfo>
  <atoms>      12 </atoms>
  <types>       3 </types>
  <array name="atoms" >
   <dimension dim="1">ion</dimension>
   <field type="string">element</field>
   <field type="int">atomtype</field>
   <set>
    <rc><c>Na</c><c>   1</c></rc>
    <rc><c>Na</c><c>   1</c></rc>
    <rc><c>S </c><c>   2</c></rc>
    <rc><c>S </c><c>   2</c></rc>
    <rc><c>O </c><c>   3</c></rc>
    <rc><c>O </c><c>   3</c></rc>
    <rc><c>O </c><c>   3</c></rc>
    <rc><c>O </c><c>   3</c></rc>
    <rc><c>O </c><c>   3</c></rc>
    <rc><c>O </c><c>   3</c></rc>
    <rc><c>O </c><c>   3</c></rc>
    <rc><c>O </c><c>   3</c></rc>
   </set>
  </array>
  <array name="atomtypes" >
   <dimension dim="1">type</dimension>
   <field type="int">atomspertype</field>
   <field type="string">element</field>
   <field>mass</field>
   <field>valence</field>
   <field type="string">pseudopotential</field>
   <set>
    <rc><c>   2</c><c>Na</c><c>     22.99000000</c><c>      7.00000000</c><c>  PAW_PBE Na_pv 19Sep2006               </c></rc>
    <rc><c>   2</c><c>S </c><c>     32.06600000</c><c>      6.00000000</c><c>  PAW_PBE S 06Sep2000                   </c></rc>
    <rc><c>   8</c><c>O </c><c>     16.00000000</c><c>      6.00000000</c><c>  PAW_PBE O 08Apr2002                   </c></rc>
   </set>
  </array>
 </atominfo>
 <structure name="initialpos" >
  <crystal>
   <varray name="basis" >
    <v>       4.78000000       0.00000000       0.00000000 </v>
    <v>      -0.71977227       5.52834088       0.00000000 </v>
    <v>      -1.40506055      -1.44648231       5.74750161 </v>
   </varray>
   <i name="volume">    151.88042797 </i>
   <varray name="rec_basis" >
    <v>       0.20920502       0.02723782       0.05799820 </v>
    <v>      -0.00000000       0.18088610       0.04552387 </v>
    <v>       0.00000000      -0.00000000       0.17398864 </v>
   </varray>
  </crystal>
  <varray name="positions" >
   <v>       0.03562140       0.31434519       0.20900384 </v>
   <v>       0.96437860       0.68565481       0.79099616 </v>
   <v>       0.61219534       0.77766144       0.24484015 </v>
   <v>       0.38780466       0.22233856       0.75515985 </v>
   <v>       0.58137871       0.03862518       0.41708693 </v>
   <v>       0.41862129       0.96137482       0.58291307 </v>
   <v>       0.77367226       0.89619626       0.10823110 </v>
   <v>       0.22632774       0.10380374       0.89176890 </v>
   <v>       0.31532091       0.64828632       0.12249705 </v>
   <v>       0.68467909       0.35171368       0.87750295 </v>
   <v>       0.77308342       0.63887214       0.39250280 </v>
   <v>       0.22691658       0.36112786       0.60749720 </v>
  </varray>
 </structure>
 <calculation>
  <scstep>
   <time name="dav">   22.29   22.30</time>
   <time name="total">   22.48   22.49</time>
   <energy>
    <i name="alphaZ">    157.22874361 </i>
    <i name="ewald">  -3385.59921448 </i>
    <i name="hartreedc">  -1709.99521564 </i>
    <i name="XCdc">    299.79693165 </i>
    <i name="pawpsdc">   4212.05979638 </i>
    <i name="pawaedc">  -4397.21421078 </i>
    <i name="eentropy">      0.00000000 </i>
    <i name="bandstr">   -608.74060227 </i>
    <i name="atom">   5544.62445944 </i>
    <i name="e_fr_energy">    112.16068789 </i>
    <i name="e_wo_entrp">    112.16068789 </i>
    <i name="e_0_energy">    112.16068789 </i>
   </energy>
  </scstep>
  <scstep>
   <time name="dav">   49.22   49.26</time>
   <time name="total">   49.29   49.33</time>
   <energy>
    <i name="e_fr_energy">    -77.08233114 </i>
    <i name="e_wo_entrp">    -77.08233114 </i>
    <i name="e_0_energy">    -77.08233114 </i>
   </energy>
  </scstep>
  <scstep>
   <time name="dav">   22.96   22.99</time>
   <time name="total">   23.03   23.05</time>
   <energy>
    <i name="e_fr_energy">    -77.63177439 </i>
    <i name="e_wo_entrp">    -77.63177439 </i>
    <i name="e_0_energy">    -77.63177439 </i>
   </energy>
  </scstep>
  <scstep>
   <time name="dav">   93.95   94.01</time>
   <time name="total">   94.02   94.08</time>
   <energy>
    <i name="e_fr_energy">    -77.63273567 </i>
    <i name="e_wo_entrp">    -77.63273567 </i>
    <i name="e_0_energy">    -77.63273567 </i>
   </energy>
  </scstep>
  <scstep>
   <time name="dav">   22.73   22.76</time>
   <time name="total">   22.90   22.93</time>
   <energy>
    <i name="e_fr_energy">    -77.63273567 </i>
    <i name="e_wo_entrp">    -77.63273567 </i>
    <i name="e_0_energy">    -77.63273567 </i>
   </energy>
  </scstep>
  <scstep>
   <time name="dav">   88.08   88.12</time>
   <time name="total">   88.31   88.36</time>
   <energy>
    <i name="e_fr_energy">    -67.80031589 </i>
    <i name="e_wo_entrp">    -67.80031589 </i>
    <i name="e_0_energy">    -67.80031589 </i>
   </energy>
  </scstep>
  <scstep>
   <time name="dav">   31.86   31.88</time>
   <time name="total">   32.08   32.11</time>
   <energy>
    <i name="e_fr_energy">    -67.59547876 </i>
    <i name="e_wo_entrp">    -67.59547876 </i>
    <i name="e_0_energy">    -67.59547876 </i>
   </energy>
  </scstep>
  <scstep>
   <time name="dav">   87.89   87.93</time>
   <time name="total">   88.11   88.16</time>
   <energy>
    <i name="e_fr_energy">    -67.56431892 </i>
    <i name="e_wo_entrp">    -67.56431892 </i>
    <i name="e_0_energy">    -67.56431892 </i>
   </energy>
  </scstep>
  <scstep>
   <time name="dav">   31.85   31.86</time>
   <time name="total">   32.06   32.09</time>
   <energy>
    <i name="e_fr_energy">    -67.56527484 </i>
    <i name="e_wo_entrp">    -67.56527484 </i>
    <i name="e_0_energy">    -67.56527484 </i>
   </energy>
  </scstep>
  <scstep>
   <time name="dav">   87.59   87.63</time>
   <time name="total">   87.80   87.86</time>
   <energy>
    <i name="e_fr_energy">    -67.56597773 </i>
    <i name="e_wo_entrp">    -67.56597773 </i>
    <i name="e_0_energy">    -67.56597773 </i>
   </energy>
  </scstep>
  <scstep>
   <time name="dav">   38.56   38.57</time>
   <time name="total">   38.79   38.82</time>
   <energy>
    <i name="e_fr_energy">    -67.56625305 </i>
    <i name="e_wo_entrp">    -67.56625305 </i>
    <i name="e_0_energy">    -67.56625305 </i>
   </energy>
  </scstep>
  <scstep>
   <time name="dav">   83.54   83.58</time>
   <time name="total">   83.75   83.81</time>
   <energy>
    <i name="e_fr_energy">    -67.56634384 </i>
    <i name="e_wo_entrp">    -67.56634384 </i>
    <i name="e_0_energy">    -67.56634384 </i>
   </energy>
  </scstep>
  <scstep>
   <time name="dav">   36.25   36.27</time>
   <time name="total">   36.41   36.44</time>
   <energy>
    <i name="alphaZ">    157.22874361 </i>
    <i name="ewald">  -3385.59921448 </i>
    <i name="hartreedc">  -1798.64770395 </i>
    <i name="XCdc">    307.55992375 </i>
    <i name="pawpsdc">  11658.44271323 </i>
    <i name="pawaedc"> -11844.89197457 </i>
    <i name="eentropy">      0.00000000 </i>
    <i name="bandstr">   -706.28329527 </i>
    <i name="atom">   5544.62445944 </i>
    <i name="e_fr_energy">    -67.56634824 </i>
    <i name="e_wo_entrp">    -67.56634824 </i>
    <i name="e_0_energy">    -67.56634824 </i>
   </energy>
  </scstep>
  <structure>
   <crystal>
    <varray name="basis" >
     <v>       4.78000000       0.00000000       0.00000000 </v>
     <v>      -0.71977227       5.52834088       0.00000000 </v>
     <v>      -1.40506055      -1.44648231       5.74750161 </v>
    </varray>
    <i name="volume">    151.88042797 </i>
    <varray name="rec_basis" >
     <v>       0.20920502       0.02723782       0.05799820 </v>
     <v>      -0.00000000       0.18088610       0.04552387 </v>
     <v>       0.00000000      -0.00000000       0.17398864 </v>
    </varray>
   </crystal>
   <varray name="positions" >
    <v>       0.03562140       0.31434519       0.20900384 </v>
    <v>       0.96437860       0.68565481       0.79099616 </v>
    <v>       0.61219534       0.77766144       0.24484015 </v>
    <v>       0.38780466       0.22233856       0.75515985 </v>
    <v>       0.58137871       0.03862518       0.41708693 </v>
    <v>       0.41862129       0.96137482       0.58291307 </v>
    <v>       0.77367226       0.89619626       0.10823110 </v>
    <v>       0.22632774       0.10380374       0.89176890 </v>
    <v>       0.31532091       0.64828632       0.12249705 </v>
    <v>       0.68467909       0.35171368       0.87750295 </v>
    <v>       0.77308342       0.63887214       0.39250280 </v>
    <v>       0.22691658       0.36112786       0.60749720 </v>
   </varray>
  </structure>
  <varray name="forces" >
   <v>      -0.00327791      -0.00127599       0.00439962 </v>
   <v>       0.00327791       0.00127599      -0.00439962 </v>
   <v>      -0.00053409      -0.00668593      -0.00101885 </v>
   <v>       0.00053409       0.00668593       0.00101885 </v>
   <v>       0.00302171      -0.00073070       0.00198885 </v>
   <v>      -0.00302171       0.00073070      -0.00198885 </v>
   <v>       0.00002428      -0.00083519      -0.00115228 </v>
   <v>      -0.00002428       0.00083519       0.00115228 </v>
   <v>      -0.00042190       0.00135109       0.00088747 </v>
   <v>       0.00042190      -0.00135109      -0.00088747 </v>
   <v>      -0.00110264      -0.00203007      -0.00549904 </v>
[...]
       <r>    4.0398    0.0000 </r>
       <r>    6.8214    0.0000 </r>
       <r>    7.7034    0.0000 </r>
       <r>    7.9903    0.0000 </r>
       <r>    8.3166    0.0000 </r>
       <r>    9.6052    0.0000 </r>
       <r>    9.9430    0.0000 </r>
       <r>   10.2514    0.0000 </r>
       <r>   10.4369    0.0000 </r>
       <r>   10.5419    0.0000 </r>
       <r>   10.9356    0.0000 </r>
       <r>   11.6229    0.0000 </r>
       <r>   12.1590    0.0000 </r>
       <r>   12.7485    0.0000 </r>
       <r>   13.0486    0.0000 </r>
       <r>   13.7932    0.0000 </r>
       <r>   14.1917    0.0000 </r>
       <r>   14.5867    0.0000 </r>
       <r>   14.7768    0.0000 </r>
       <r>   15.3874    0.0000 </r>
       <r>   15.7137    0.0000 </r>
       <r>   15.8202    0.0000 </r>
       <r>   16.4176    0.0000 </r>
       <r>   16.7828    0.0000 </r>
       <r>   17.4926    0.0000 </r>
       <r>   17.6542    0.0000 </r>
       <r>   18.2601    0.0000 </r>
       <r>   18.5996    0.0000 </r>
       <r>   18.8182    0.0000 </r>
       <r>   19.0301    0.0000 </r>
       <r>   19.3218    0.0000 </r>
       <r>   19.7178    0.0000 </r>
       <r>   20.3840    0.0000 </r>
       <r>   20.7046    0.0000 </r>
       <r>   21.4215    0.0000 </r>
       <r>   21.9510    0.0000 </r>
       <r>   22.4735    0.0000 </r>
       <r>   22.7136    0.0000 </r>
       <r>   23.1475    0.0000 </r>
       <r>   23.2439    0.0000 </r>
       <r>   23.5584    0.0000 </r>
       <r>   23.9717    0.0000 </r>
       <r>   24.1779    0.0000 </r>
       <r>   24.7417    0.0000 </r>
       <r>   24.9010    0.0000 </r>
       <r>   25.0799    0.0000 </r>
       <r>   25.5679    0.0000 </r>
       <r>   25.8247    0.0000 </r>
       <r>   26.1634    0.0000 </r>
       <r>   27.0227    0.0000 </r>
       <r>   27.1613    0.0000 </r>
       <r>   27.5511    0.0000 </r>
       <r>   27.7084    0.0000 </r>
       <r>   27.9608    0.0000 </r>
       <r>   28.5143    0.0000 </r>
       <r>   28.8252    0.0000 </r>
       <r>   29.1080    0.0000 </r>
       <r>   29.2872    0.0000 </r>
       <r>   29.7373    0.0000 </r>
       <r>   29.9700    0.0000 </r>
       <r>   30.2176    0.0000 </r>
       <r>   30.7084    0.0000 </r>
       <r>   30.8623    0.0000 </r>
       <r>   31.1344    0.0000 </r>
       <r>   31.6947    0.0000 </r>
       <r>   32.0654    0.0000 </r>
       <r>   32.0884    0.0000 </r>
       <r>   32.4294    0.0000 </r>
       <r>   32.9311    0.0000 </r>
       <r>   33.2442    0.0000 </r>
       <r>   33.5957    0.0000 </r>
       <r>   33.7746    0.0000 </r>
       <r>   33.9011    0.0000 </r>
       <r>   34.2002    0.0000 </r>
       <r>   34.4787    0.0000 </r>
       <r>   34.8378    0.0000 </r>
       <r>   35.0337    0.0000 </r>
       <r>   35.3250    0.0000 </r>
       <r>   35.9038    0.0000 </r>
       <r>   36.0882    0.0000 </r>
       <r>   36.4860    0.0000 </r>
       <r>   36.7771    0.0000 </r>
       <r>   36.9562    0.0000 </r>
       <r>   37.2731    0.0000 </r>
       <r>   38.0266    0.0000 </r>
       <r>   38.2622    0.0000 </r>
       <r>   38.4510    0.0000 </r>
       <r>   38.5643    0.0000 </r>
       <r>   38.6151    0.0000 </r>
       <r>   38.6892    0.0000 </r>
       <r>   39.2051    0.0000 </r>
      </set>
     </set>
    </set>
   </array>
  </eigenvalues>
  <separator name="orbital magnetization" >
   <v name="MAGDIPOLOUT">      0.00000000      0.00000000      0.00000000</v>
  </separator>
  <dos>
   <i name="efermi">      0.56310809 </i>
   <total>
    <array>
     <dimension dim="1">gridpoints</dimension>
     <dimension dim="2">spin</dimension>
     <field>energy</field>
     <field>total</field>
     <field>integrated</field>
     <set>
      <set comment="spin 1">
       <r>   -26.3188     0.0000     0.0000 </r>
       <r>   -26.0895     0.0000     0.0000 </r>
       <r>   -25.8603     0.0000     0.0000 </r>
       <r>   -25.6310     0.0000     0.0000 </r>
       <r>   -25.4017     0.0000     0.0000 </r>
       <r>   -25.1725     0.0000     0.0000 </r>
       <r>   -24.9432     0.0000     0.0000 </r>
       <r>   -24.7139     0.0000     0.0000 </r>
       <r>   -24.4846     0.0000     0.0000 </r>
       <r>   -24.2554     0.0000     0.0000 </r>
       <r>   -24.0261     0.0000     0.0000 </r>
       <r>   -23.7968     0.0000     0.0000 </r>
       <r>   -23.5676     0.0000     0.0000 </r>
       <r>   -23.3383     0.0000     0.0000 </r>
       <r>   -23.1090    24.9467     1.8430 </r>
       <r>   -22.8798     0.0692     2.0000 </r>
       <r>   -22.6505     0.0000     2.0000 </r>
       <r>   -22.4212    23.1185     3.3380 </r>
       <r>   -22.1919     1.4954     4.0000 </r>
       <r>   -21.9627     0.0000     4.0000 </r>
       <r>   -21.7334     0.0000     4.0000 </r>
       <r>   -21.5041     0.0000     4.0000 </r>
       <r>   -21.2749     0.0000     4.0000 </r>
       <r>   -21.0456     0.0000     4.0000 </r>
       <r>   -20.8163     0.0000     4.0000 </r>
       <r>   -20.5871    23.3630     4.6823 </r>
       <r>   -20.3578     3.9186     6.0000 </r>
       <r>   -20.1285   141.7045     7.6640 </r>
       <r>   -19.8992    40.1966    18.0000 </r>
       <r>   -19.6700     0.0000    18.0000 </r>
       <r>   -19.4407     0.0000    18.0000 </r>
       <r>   -19.2114     0.0000    18.0000 </r>
       <r>   -18.9822     0.0000    18.0000 </r>
       <r>   -18.7529     0.0000    18.0000 </r>
       <r>   -18.5236    17.4467    22.0000 </r>
       <r>   -18.2944    17.4467    26.0000 </r>
       <r>   -18.0651     0.0000    26.0000 </r>
       <r>   -17.8358     0.0000    26.0000 </r>
       <r>   -17.6065     0.0000    26.0000 </r>
       <r>   -17.3773     0.0000    26.0000 </r>
       <r>   -17.1480     0.0000    26.0000 </r>
       <r>   -16.9187     0.0000    26.0000 </r>
       <r>   -16.6895     0.0000    26.0000 </r>
       <r>   -16.4602     8.7233    28.0000 </r>
       <r>   -16.2309     0.0000    28.0000 </r>
       <r>   -16.0017     0.0000    28.0000 </r>
       <r>   -15.7724     0.0000    28.0000 </r>
       <r>   -15.5431     0.0000    28.0000 </r>
       <r>   -15.3138     0.0000    28.0000 </r>
       <r>   -15.0846     0.0000    28.0000 </r>
       <r>   -14.8553     0.0000    28.0000 </r>
       <r>   -14.6260     0.0000    28.0000 </r>
       <r>   -14.3968     0.0000    28.0000 </r>
       <r>   -14.1675     0.0000    28.0000 </r>
       <r>   -13.9382     0.0000    28.0000 </r>
       <r>   -13.7090     0.0000    28.0000 </r>
       <r>   -13.4797     0.0000    28.0000 </r>
       <r>   -13.2504     0.0000    28.0000 </r>
       <r>   -13.0211     0.0000    28.0000 </r>
       <r>   -12.7919     0.0000    28.0000 </r>
       <r>   -12.5626     0.0000    28.0000 </r>
       <r>   -12.3333     0.0000    28.0000 </r>
       <r>   -12.1041     0.0000    28.0000 </r>
       <r>   -11.8748     0.0000    28.0000 </r>
       <r>   -11.6455     0.0000    28.0000 </r>
       <r>   -11.4163     0.0000    28.0000 </r>
       <r>   -11.1870     0.0000    28.0000 </r>
       <r>   -10.9577     0.0000    28.0000 </r>
       <r>   -10.7284     0.0000    28.0000 </r>
       <r>   -10.4992     0.0000    28.0000 </r>
       <r>   -10.2699     0.0000    28.0000 </r>
       <r>   -10.0406     0.0000    28.0000 </r>
       <r>    -9.8114     0.0000    28.0000 </r>
       <r>    -9.5821     0.0000    28.0000 </r>
       <r>    -9.3528     0.0000    28.0000 </r>
       <r>    -9.1236     0.1414    28.0007 </r>
       <r>    -8.8943    13.0678    29.8606 </r>
       <r>    -8.6650     0.0415    30.0000 </r>
       <r>    -8.4357     0.0000    30.0000 </r>
       <r>    -8.2065     8.2158    30.3285 </r>
       <r>    -7.9772     5.3586    32.0000 </r>
       <r>    -7.7479     0.0000    32.0000 </r>
       <r>    -7.5187     0.0000    32.0000 </r>
       <r>    -7.2894     0.0000    32.0000 </r>
       <r>    -7.0601     0.0000    32.0000 </r>
       <r>    -6.8309    12.6585    32.5930 </r>
       <r>    -6.6016     4.5988    33.9858 </r>
       <r>    -6.3723    10.6921    35.9208 </r>
       <r>    -6.1430     0.0554    36.0000 </r>
       <r>    -5.9138     0.0000    36.0000 </r>
       <r>    -5.6845     0.0000    36.0000 </r>
       <r>    -5.4552    17.0093    37.3218 </r>
       <r>    -5.2260    13.3002    39.7198 </r>
       <r>    -4.9967    12.0929    42.0552 </r>
       <r>    -4.7674     6.5494    44.0000 </r>
       <r>    -4.5382     0.0000    44.0000 </r>
       <r>    -4.3089     0.0000    44.0000 </r>
       <r>    -4.0796     0.0000    44.0000 </r>
       <r>    -3.8503    11.8478    45.0903 </r>
       <r>    -3.6211    22.4659    47.7865 </r>
       <r>    -3.3918     0.0969    48.0000 </r>
       <r>    -3.1625     0.0000    48.0000 </r>
       <r>    -2.9333     1.0298    48.0168 </r>
       <r>    -2.7040     6.5713    48.8757 </r>
       <r>    -2.4747    17.2893    50.6965 </r>
       <r>    -2.2454    17.8592    53.2759 </r>
       <r>    -2.0162    16.7185    55.6940 </r>
       <r>    -1.7869     9.6646    57.9639 </r>
       <r>    -1.5576    11.2432    59.6893 </r>
       <r>    -1.3284     8.8375    61.9660 </r>
       <r>    -1.0991    18.4941    64.1297 </r>
       <r>    -0.8698     5.8848    66.0000 </r>
       <r>    -0.6406    26.9553    66.6911 </r>
       <r>    -0.4113     3.7386    68.0000 </r>
       <r>    -0.1820     0.0000    68.0000 </r>
       <r>     0.0473    28.7648    70.7506 </r>
       <r>     0.2765    14.7083    72.9387 </r>
       <r>     0.5058     3.0739    74.0000 </r>
       <r>     0.7351     0.0000    74.0000 </r>
       <r>     0.9643     0.0000    74.0000 </r>
       <r>     1.1936     0.0000    74.0000 </r>
       <r>     1.4229     0.0000    74.0000 </r>
       <r>     1.6521     0.0000    74.0000 </r>
       <r>     1.8814     0.0000    74.0000 </r>
       <r>     2.1107     0.0000    74.0000 </r>
       <r>     2.3400     0.0000    74.0000 </r>
       <r>     2.5692     0.0000    74.0000 </r>
       <r>     2.7985     0.0000    74.0000 </r>
       <r>     3.0278     0.0000    74.0000 </r>
       <r>     3.2570     0.0000    74.0000 </r>
       <r>     3.4863     0.0000    74.0000 </r>
       <r>     3.7156     0.0000    74.0000 </r>
       <r>     3.9448     0.0000    74.0000 </r>
       <r>     4.1741     8.7233    76.0000 </r>
       <r>     4.4034     0.0000    76.0000 </r>
       <r>     4.6327     0.0000    76.0000 </r>
       <r>     4.8619     0.0000    76.0000 </r>
       <r>     5.0912     0.0000    76.0000 </r>
       <r>     5.3205     0.0000    76.0000 </r>
       <r>     5.5497     0.0000    76.0000 </r>
       <r>     5.7790     0.0000    76.0000 </r>
       <r>     6.0083     0.0042    76.0000 </r>
       <r>     6.2375     0.2536    76.0218 </r>
       <r>     6.4668     0.4373    76.1033 </r>
       <r>     6.6961     0.6799    76.2294 </r>
       <r>     6.9254     1.1674    76.4296 </r>
       <r>     7.1546     2.4904    76.8223 </r>
       <r>     7.3839     6.2071    77.7815 </r>
       <r>     7.6132     4.5787    78.4385 </r>
       <r>     7.8424     5.0688    79.8988 </r>
       <r>     8.0717     9.8709    81.3775 </r>
       <r>     8.3010     7.9708    82.6842 </r>
       <r>     8.5302     2.7263    83.8414 </r>
       <r>     8.7595     0.0822    83.9995 </r>
       <r>     8.9888     0.0000    84.0000 </r>
       <r>     9.2181     0.1992    84.0038 </r>
       <r>     9.4473     8.3488    84.6779 </r>
       <r>     9.6766     4.6277    85.9058 </r>
       <r>     9.9059     9.6964    87.3951 </r>
       <r>    10.1351     9.9314    89.0330 </r>
       <r>    10.3644     6.9818    90.3821 </r>
       <r>    10.5937    12.6752    92.4306 </r>
       <r>    10.8229     7.1817    94.0317 </r>
       <r>    11.0522     7.1366    95.6077 </r>
       <r>    11.2815     3.1706    96.3601 </r>
       <r>    11.5108     3.2213    97.1353 </r>
       <r>    11.7400     5.7780    98.0363 </r>
       <r>    11.9693     3.0562    98.9789 </r>
       <r>    12.1986     3.4595    99.6702 </r>
       <r>    12.4278     3.9201   100.5107 </r>
       <r>    12.6571     3.6759   101.3640 </r>
       <r>    12.8864     3.6924   102.1705 </r>
       <r>    13.1156     4.5205   103.1840 </r>
       <r>    13.3449     4.7480   104.2320 </r>
       <r>    13.5742     4.2369   105.1150 </r>
       <r>    13.8035     5.6306   106.2224 </r>
       <r>    14.0327     5.4196   107.4695 </r>
       <r>    14.2620     7.4240   108.6443 </r>
       <r>    14.4913     5.2326   109.8661 </r>
       <r>    14.7205     4.6122   110.8699 </r>
       <r>    14.9498     3.0370   111.7011 </r>
       <r>    15.1791     5.1308   112.5958 </r>
       <r>    15.4083     4.8933   113.6876 </r>
       <r>    15.6376     3.4932   114.6134 </r>
       <r>    15.8669     4.2790   115.4584 </r>
       <r>    16.0962     3.7833   116.2798 </r>
       <r>    16.3254     6.3880   117.4187 </r>
       <r>    16.5547     4.6156   118.4997 </r>
       <r>    16.7840     6.4422   119.7980 </r>
       <r>    17.0132     5.3861   121.1363 </r>
       <r>    17.2425     5.9845   122.4214 </r>
       <r>    17.4718     7.8050   123.8847 </r>
       <r>    17.7010     5.6564   125.2244 </r>
       <r>    17.9303     5.1879   126.3002 </r>
       <r>    18.1596     5.6738   127.4919 </r>
       <r>    18.3889     5.9085   128.9316 </r>
       <r>    18.6181     6.6816   130.1064 </r>
       <r>    18.8474     6.4191   131.5614 </r>
       <r>    19.0767     5.9628   132.6201 </r>
       <r>    19.3059     4.3796   133.6930 </r>
       <r>    19.5352     3.8072   134.5784 </r>
       <r>    19.7645     5.6526   135.6409 </r>
       <r>    19.9937     4.7583   136.7507 </r>
       <r>    20.2230     3.8717   137.7163 </r>
       <r>    20.4523     5.8819   138.6165 </r>
       <r>    20.6816     3.5046   139.8190 </r>
       <r>    20.9108     5.9640   141.0457 </r>
       <r>    21.1401     3.8832   142.0269 </r>
       <r>    21.3694     4.3133   142.9155 </r>
       <r>    21.5986     5.0190   143.9309 </r>
       <r>    21.8279     7.3888   145.1590 </r>
       <r>    22.0572     5.0483   146.3085 </r>
       <r>    22.2864     5.8048   147.5057 </r>
       <r>    22.5157     6.3281   148.6084 </r>
       <r>    22.7450     4.2185   150.0364 </r>
       <r>    22.9743     7.2446   151.2114 </r>
       <r>    23.2035     6.1787   152.5232 </r>
       <r>    23.4328     6.5695   154.0252 </r>
       <r>    23.6621     7.1764   155.1496 </r>
       <r>    23.8913     5.2649   156.6014 </r>
       <r>    24.1206     6.0798   158.1795 </r>
       <r>    24.3499     7.3394   159.5214 </r>
       <r>    24.5791     7.1256   160.9219 </r>
       <r>    24.8084     4.4102   162.2138 </r>
       <r>    25.0377     8.1877   163.6668 </r>
       <r>    25.2670     8.2755   164.9605 </r>
       <r>    25.4962     7.2557   166.2460 </r>
       <r>    25.7255     4.5185   167.7116 </r>
       <r>    25.9548     8.2411   168.9250 </r>
       <r>    26.1840     5.5936   170.2332 </r>
       <r>    26.4133     6.2278   171.6440 </r>
       <r>    26.6426     5.2581   172.7658 </r>
       <r>    26.8718     5.3218   174.0711 </r>
       <r>    27.1011     6.0038   175.3547 </r>
       <r>    27.3304     5.9460   176.5665 </r>
       <r>    27.5597     5.5015   177.9079 </r>
       <r>    27.7889     5.5929   179.2245 </r>
       <r>    28.0182     5.1782   180.3837 </r>
       <r>    28.2475     4.6293   181.6447 </r>
       <r>    28.4767     7.2771   183.0209 </r>
       <r>    28.7060     6.2565   184.4770 </r>
       <r>    28.9353     5.2715   185.7925 </r>
       <r>    29.1645     7.1045   187.1686 </r>
       <r>    29.3938     5.5627   188.5270 </r>
       <r>    29.6231     6.9207   189.9596 </r>
       <r>    29.8524     7.8310   191.4985 </r>
       <r>    30.0816     7.5726   193.1128 </r>
       <r>    30.3109     6.5064   194.5221 </r>
       <r>    30.5402     5.6838   195.9710 </r>
       <r>    30.7694     7.9840   197.4923 </r>
       <r>    30.9987     6.0276   198.9276 </r>
       <r>    31.2280     5.6506   200.3861 </r>
       <r>    31.4572     7.6417   201.8598 </r>
       <r>    31.6865     7.7846   203.4482 </r>
       <r>    31.9158     6.1190   204.7838 </r>
       <r>    32.1451     6.4326   206.1572 </r>
       <r>    32.3743     6.9438   207.6566 </r>
       <r>    32.6036     8.2455   209.0550 </r>
       <r>    32.8329     7.1956   210.6766 </r>
       <r>    33.0621     7.4346   212.1262 </r>
       <r>    33.2914     5.7633   213.7237 </r>
       <r>    33.5207     9.4700   215.1784 </r>
       <r>    33.7499     6.3687   216.7123 </r>
       <r>    33.9792     7.1160   218.3313 </r>
       <r>    34.2085     8.7904   219.8492 </r>
       <r>    34.4378     6.4199   221.2836 </r>
       <r>    34.6670     5.9606   222.6546 </r>
       <r>    34.8963     7.9226   224.2579 </r>
       <r>    35.1256     9.1181   225.9542 </r>
       <r>    35.3548     7.5725   227.3554 </r>
       <r>    35.5841     7.3661   228.9421 </r>
       <r>    35.8134     7.6725   230.6442 </r>
       <r>    36.0426     6.9598   232.3300 </r>
       <r>    36.2719     7.5318   233.7873 </r>
       <r>    36.5012     6.8898   235.3197 </r>
       <r>    36.7305     9.2423   236.8936 </r>
       <r>    36.9597     5.8645   238.5691 </r>
       <r>    37.1890     7.4543   239.9076 </r>
       <r>    37.4183     6.6771   241.6673 </r>
       <r>    37.6475     7.0019   243.0522 </r>
       <r>    37.8768     7.7976   244.6367 </r>
       <r>    38.1061     7.7667   246.2059 </r>
       <r>    38.3353     7.5012   247.8945 </r>
       <r>    38.5646    20.1376   250.0168 </r>
       <r>    38.7939    19.0857   254.6791 </r>
       <r>    39.0232     2.5081   255.7099 </r>
       <r>    39.2524     0.3626   255.9898 </r>
       <r>    39.4817     0.0000   256.0000 </r>
       <r>    39.7110     0.0000   256.0000 </r>
       <r>    39.9402     0.0000   256.0000 </r>
       <r>    40.1695     0.0000   256.0000 </r>
       <r>    40.3988     0.0000   256.0000 </r>
       <r>    40.6280     0.0000   256.0000 </r>
       <r>    40.8573     0.0000   256.0000 </r>
       <r>    41.0866     0.0000   256.0000 </r>
       <r>    41.3159     0.0000   256.0000 </r>
       <r>    41.5451     0.0000   256.0000 </r>
       <r>    41.7744     0.0000   256.0000 </r>
       <r>    42.0037     0.0000   256.0000 </r>
       <r>    42.2329     0.0000   256.0000 </r>
       <r>    42.4622     0.0000   256.0000 </r>
      </set>
     </set>
    </array>
   </total>
  </dos>
 </calculation>
 <structure name="finalpos" >
  <crystal>
   <varray name="basis" >
    <v>       4.78000000       0.00000000       0.00000000 </v>
    <v>      -0.71977227       5.52834088       0.00000000 </v>
    <v>      -1.40506055      -1.44648231       5.74750161 </v>
   </varray>
   <i name="volume">    151.88042797 </i>
   <varray name="rec_basis" >
    <v>       0.20920502       0.02723782       0.05799820 </v>
    <v>      -0.00000000       0.18088610       0.04552387 </v>
    <v>       0.00000000      -0.00000000       0.17398864 </v>
   </varray>
  </crystal>
  <varray name="positions" >
   <v>       0.03562140       0.31434519       0.20900384 </v>
   <v>       0.96437860       0.68565481       0.79099616 </v>
   <v>       0.61219534       0.77766144       0.24484015 </v>
   <v>       0.38780466       0.22233856       0.75515985 </v>
   <v>       0.58137871       0.03862518       0.41708693 </v>
   <v>       0.41862129       0.96137482       0.58291307 </v>
   <v>       0.77367226       0.89619626       0.10823110 </v>
   <v>       0.22632774       0.10380374       0.89176890 </v>
   <v>       0.31532091       0.64828632       0.12249705 </v>
   <v>       0.68467909       0.35171368       0.87750295 </v>
   <v>       0.77308342       0.63887214       0.39250280 </v>
   <v>       0.22691658       0.36112786       0.60749720 </v>
  </varray>
 </structure>
</modeling>
