
     Program PWSCF v.5.4.0 starts on 12May2016 at 21: 9:47 

     This program is part of the open-source Quantum ESPRESSO suite
     for quantum simulation of materials; please cite
         "P. Giannozzi et al., J. Phys.:Condens. Matter 21 395502 (2009);
          URL http://www.quantum-espresso.org", 
     in publications or presentations arising from this work. More details at
     http://www.quantum-espresso.org/quote

     Parallel version (MPI), running on     4 processors
     R & G space division:  proc/nbgrp/npool/nimage =       4
     Waiting for input...
     Reading input from standard input

     Current dimensions of program PWSCF are:
     Max number of different atomic species (ntypx) = 10
     Max number of k-points (npk) =  40000
     Max angular momentum in pseudopotentials (lmaxx) =  3

     Subspace diagonalization in iterative solution of the eigenvalue problem:
     a serial algorithm will be used

 
     Parallelization info
     --------------------
     sticks:   dense  smooth     PW     G-vecs:    dense   smooth      PW
     Min         695     695    193                19154    19154    2835
     Max         696     696    194                19155    19155    2836
     Sum        2781    2781    775                76617    76617   11343
 


     bravais-lattice index     =            0
     lattice parameter (alat)  =       6.3306  a.u.
     unit-cell volume          =     342.3634 (a.u.)^3
     number of atoms/cell      =            4
     number of atomic types    =            2
     number of electrons       =        36.00
     number of Kohn-Sham states=           18
     kinetic-energy cutoff     =     140.0000  Ry
     charge density cutoff     =     560.0000  Ry
     convergence threshold     =      1.0E-08
     mixing beta               =       0.5000
     number of iterations used =            8  plain     mixing
     Exchange-correlation      = SLA-PW-PBX-PBC ( 1  4  3  4 0 0)
     nstep                     =           50


     celldm(1)=   6.330583  celldm(2)=   0.000000  celldm(3)=   0.000000
     celldm(4)=   0.000000  celldm(5)=   0.000000  celldm(6)=   0.000000

     crystal axes: (cart. coord. in units of alat)
               a(1) = (   1.558209   0.000000   0.000000 )  
               a(2) = (   0.000000   0.866025  -0.500000 )  
               a(3) = (   0.000000   0.000000   1.000000 )  

     reciprocal axes: (cart. coord. in units 2 pi/alat)
               b(1) = (  0.641762  0.000000  0.000000 )  
               b(2) = (  0.000000  1.154701  0.000000 )  
               b(3) = (  0.000000  0.577350  1.000000 )  


     PseudoPot. # 1 for Zn read from file:
     /home/john/Data/PseudoPotentials/Zn.pbe-d-hgh.UPF
     MD5 check sum: 2c4cf50446965f9dcd248dd8eab3483b
     Pseudo is Norm-conserving, Zval = 12.0
     Generated in analytical, separable form
     Using radial grid of 1201 points,  6 beta functions with: 
                l(1) =   0
                l(2) =   0
                l(3) =   0
                l(4) =   1
                l(5) =   1
                l(6) =   2

     PseudoPot. # 2 for  O read from file:
     /home/john/Data/PseudoPotentials/O.pbe-hgh.UPF
     MD5 check sum: 631417d4da25374a53828d646ac41374
     Pseudo is Norm-conserving, Zval =  6.0
     Generated in analytical, separable form
     Using radial grid of 1095 points,  1 beta functions with: 
                l(1) =   0

     atomic species   valence    mass     pseudopotential
        Zn            12.00    65.40900     Zn( 1.00)
        O              6.00    15.99900      O( 1.00)

     No symmetry found



   Cartesian axes

     site n.     atom                  positions (alat units)
         1           Zn  tau(   1) = (   2.0109753   0.4879333  -0.0513605  )
         2           Zn  tau(   2) = (   1.2347174   0.1994734   0.4483222  )
         3           O   tau(   3) = (   1.0516790   0.4882872  -0.0518143  )
         4           O   tau(   4) = (   1.8302514   0.1998303   0.4488107  )

     number of k points=     8
                       cart. coord. in units 2pi/alat
        k(    1) = (   0.0000000   0.0000000   0.0000000), wk =   0.2500000
        k(    2) = (   0.0000000  -0.2886751  -0.5000000), wk =   0.2500000
        k(    3) = (   0.0000000  -0.5773503   0.0000000), wk =   0.2500000
        k(    4) = (  -0.3208812   0.0000000   0.0000000), wk =   0.2500000
        k(    5) = (  -0.3208812  -0.2886751  -0.5000000), wk =   0.2500000
        k(    6) = (  -0.3208812  -0.5773503   0.0000000), wk =   0.2500000
        k(    7) = (   0.0000000   0.2886751  -0.5000000), wk =   0.2500000
        k(    8) = (   0.3208812   0.2886751  -0.5000000), wk =   0.2500000

     Dense  grid:    76617 G-vectors     FFT dimensions: (  75,  48,  48)

     Largest allocated arrays     est. size (Mb)     dimensions
        Kohn-Sham Wavefunctions         0.66 Mb     (    2410,   18)
        NL pseudopotentials             1.10 Mb     (    2410,   30)
        Each V/rho on FFT grid          0.66 Mb     (   43200)
        Each G-vector array             0.15 Mb     (   19155)
        G-vector shells                 0.15 Mb     (   19155)
     Largest temporary arrays     est. size (Mb)     dimensions
        Auxiliary wavefunctions         2.65 Mb     (    2410,   72)
        Each subspace H/S matrix        0.08 Mb     (      72,   72)
        Each <psi_i|beta_j> matrix      0.01 Mb     (      30,   18)
        Arrays for rho mixing           5.27 Mb     (   43200,    8)

     Initial potential from superposition of free atoms

     starting charge   33.99999, renormalised to   36.00000

     negative rho (up, down):  6.166E-06 0.000E+00
     Starting wfc are random

     total cpu time spent up to now is        1.6 secs

     per-process dynamical memory:    24.6 Mb

     Self-consistent Calculation

     iteration #  1     ecut=   140.00 Ry     beta=0.50
     Davidson diagonalization with overlap
     ethr =  1.00E-02,  avg # of iterations = 10.9

     negative rho (up, down):  2.616E-06 0.000E+00

     total cpu time spent up to now is        4.4 secs

     total energy              =    -291.63596410 Ry
     Harris-Foulkes estimate   =    -306.32300953 Ry
     estimated scf accuracy    <      21.63418265 Ry

     iteration #  2     ecut=   140.00 Ry     beta=0.50
     Davidson diagonalization with overlap
     ethr =  1.00E-02,  avg # of iterations =  5.4

     negative rho (up, down):  7.964E-07 0.000E+00

     total cpu time spent up to now is        6.1 secs

     total energy              =    -304.98023128 Ry
     Harris-Foulkes estimate   =    -311.11419126 Ry
     estimated scf accuracy    <      13.99776135 Ry

     iteration #  3     ecut=   140.00 Ry     beta=0.50
     Davidson diagonalization with overlap
     ethr =  1.00E-02,  avg # of iterations =  4.1

     negative rho (up, down):  5.478E-07 0.000E+00

     total cpu time spent up to now is        7.3 secs

     total energy              =    -305.91734697 Ry
     Harris-Foulkes estimate   =    -306.50118536 Ry
     estimated scf accuracy    <       2.16764921 Ry

     iteration #  4     ecut=   140.00 Ry     beta=0.50
     Davidson diagonalization with overlap
     ethr =  6.02E-03,  avg # of iterations =  1.0

     negative rho (up, down):  2.474E-07 0.000E+00

     total cpu time spent up to now is        8.0 secs

     total energy              =    -305.58738704 Ry
     Harris-Foulkes estimate   =    -305.98118383 Ry
     estimated scf accuracy    <       1.00133464 Ry

     iteration #  5     ecut=   140.00 Ry     beta=0.50
     Davidson diagonalization with overlap
     ethr =  2.78E-03,  avg # of iterations =  2.0

     total cpu time spent up to now is        8.9 secs

     total energy              =    -305.59672790 Ry
     Harris-Foulkes estimate   =    -305.65381251 Ry
     estimated scf accuracy    <       0.21767480 Ry

     iteration #  6     ecut=   140.00 Ry     beta=0.50
     Davidson diagonalization with overlap
     ethr =  6.05E-04,  avg # of iterations =  1.0

     total cpu time spent up to now is        9.6 secs

     total energy              =    -305.57821990 Ry
     Harris-Foulkes estimate   =    -305.60405458 Ry
     estimated scf accuracy    <       0.08349417 Ry

     iteration #  7     ecut=   140.00 Ry     beta=0.50
     Davidson diagonalization with overlap
     ethr =  2.32E-04,  avg # of iterations =  2.0

     total cpu time spent up to now is       10.5 secs

     total energy              =    -305.57363572 Ry
     Harris-Foulkes estimate   =    -305.58702968 Ry
     estimated scf accuracy    <       0.02824044 Ry

     iteration #  8     ecut=   140.00 Ry     beta=0.50
     Davidson diagonalization with overlap
     ethr =  7.84E-05,  avg # of iterations =  2.0

     total cpu time spent up to now is       11.5 secs

     total energy              =    -305.57804529 Ry
     Harris-Foulkes estimate   =    -305.57814111 Ry
     estimated scf accuracy    <       0.00048083 Ry

     iteration #  9     ecut=   140.00 Ry     beta=0.50
     Davidson diagonalization with overlap
     ethr =  1.34E-06,  avg # of iterations =  3.2

     total cpu time spent up to now is       12.5 secs

     total energy              =    -305.57817675 Ry
     Harris-Foulkes estimate   =    -305.57815482 Ry
     estimated scf accuracy    <       0.00003186 Ry

     iteration # 10     ecut=   140.00 Ry     beta=0.50
     Davidson diagonalization with overlap
     ethr =  8.85E-08,  avg # of iterations =  2.4

     total cpu time spent up to now is       13.5 secs

     total energy              =    -305.57812757 Ry
     Harris-Foulkes estimate   =    -305.57820568 Ry
     estimated scf accuracy    <       0.00013817 Ry

     iteration # 11     ecut=   140.00 Ry     beta=0.50
     Davidson diagonalization with overlap
     ethr =  8.85E-08,  avg # of iterations =  3.1

     total cpu time spent up to now is       14.7 secs

     total energy              =    -305.57815868 Ry
     Harris-Foulkes estimate   =    -305.57815938 Ry
     estimated scf accuracy    <       0.00000144 Ry

     iteration # 12     ecut=   140.00 Ry     beta=0.50
     Davidson diagonalization with overlap
     ethr =  3.99E-09,  avg # of iterations =  2.8

     total cpu time spent up to now is       15.7 secs

     total energy              =    -305.57815899 Ry
     Harris-Foulkes estimate   =    -305.57815903 Ry
     estimated scf accuracy    <       0.00000011 Ry

     iteration # 13     ecut=   140.00 Ry     beta=0.50
     Davidson diagonalization with overlap
     ethr =  2.96E-10,  avg # of iterations =  3.0

     total cpu time spent up to now is       16.7 secs

     total energy              =    -305.57815900 Ry
     Harris-Foulkes estimate   =    -305.57815901 Ry
     estimated scf accuracy    <       0.00000003 Ry

     iteration # 14     ecut=   140.00 Ry     beta=0.50
     Davidson diagonalization with overlap
     ethr =  7.70E-11,  avg # of iterations =  2.5

     total cpu time spent up to now is       17.7 secs

     End of self-consistent calculation

          k = 0.0000 0.0000 0.0000 (  9559 PWs)   bands (ev):

   -10.9261 -10.2198   1.1138   1.1157   1.1699   1.2760   1.2772   1.5153
     2.0359   2.0363   2.2748   2.2751   2.5400   5.8984   5.9010   6.6428
     6.7027   6.7028

          k = 0.0000-0.2887-0.5000 (  9592 PWs)   bands (ev):

   -10.3214 -10.0980   0.9774   1.2701   1.3242   1.6948   1.7127   1.8130
     2.0995   2.1892   2.2970   2.3496   2.9267   3.2523   3.9741   4.5089
     5.4856   5.9249

          k = 0.0000-0.5774 0.0000 (  9592 PWs)   bands (ev):

   -10.3224 -10.0973   0.9779   1.2682   1.3219   1.6954   1.7139   1.8105
     2.0995   2.1890   2.2970   2.3502   2.9275   3.2571   3.9710   4.5101
     5.4896   5.9261

          k =-0.3209 0.0000 0.0000 (  9554 PWs)   bands (ev):

   -10.6098 -10.5535   0.9817   1.0038   1.1509   1.1537   1.1884   1.1893
     2.1648   2.1650   2.1841   2.1842   4.4369   4.4709   6.2944   6.2970
     6.3276   6.3283

          k =-0.3209-0.2887-0.5000 (  9576 PWs)   bands (ev):

   -10.2279 -10.1719   0.8200   0.8435   1.5219   1.5504   1.6134   1.6289
     2.2109   2.2318   2.3071   2.3228   2.9175   2.9347   5.2327   5.2758
     5.4997   5.5180

          k =-0.3209-0.5774 0.0000 (  9576 PWs)   bands (ev):

   -10.2283 -10.1718   0.8194   0.8437   1.5166   1.5509   1.6171   1.6275
     2.2109   2.2318   2.3077   2.3229   2.9189   2.9370   5.2352   5.2754
     5.4996   5.5163

          k = 0.0000 0.2887-0.5000 (  9592 PWs)   bands (ev):

   -10.3223 -10.0972   0.9781   1.2679   1.3234   1.6951   1.7135   1.8112
     2.0992   2.1893   2.2968   2.3494   2.9257   3.2577   3.9724   4.5097
     5.4884   5.9256

          k = 0.3209 0.2887-0.5000 (  9576 PWs)   bands (ev):

   -10.2280 -10.1720   0.8196   0.8431   1.5204   1.5493   1.6146   1.6298
     2.2109   2.2318   2.3071   2.3228   2.9192   2.9365   5.2334   5.2763
     5.4978   5.5160

     highest occupied level (ev):     6.7028

!    total energy              =    -305.57815900 Ry
     Harris-Foulkes estimate   =    -305.57815901 Ry
     estimated scf accuracy    <          7.8E-10 Ry

     The total energy is the sum of the following terms:

     one-electron contribution =    -153.37528582 Ry
     hartree contribution      =     111.14824072 Ry
     xc contribution           =     -50.24695979 Ry
     ewald contribution        =    -213.10415412 Ry

     convergence has been achieved in  14 iterations

     Forces acting on atoms (Ry/au):

     atom    1 type  1   force =     0.00018837    0.00014850   -0.00033422
     atom    2 type  1   force =     0.00057726   -0.00044558   -0.00012987
     atom    3 type  2   force =    -0.00015828    0.00041323    0.00055454
     atom    4 type  2   force =    -0.00060734   -0.00011615   -0.00009045

     Total force =     0.001270     Total SCF correction =     0.000022


     entering subroutine stress ...

          total   stress  (Ry/bohr**3)                   (kbar)     P=-1583.67
  -0.01080960   0.00000135   0.00000011      -1590.15      0.20      0.02
   0.00000135  -0.01074508   0.00000146          0.20  -1580.66      0.22
   0.00000011   0.00000146  -0.01074202          0.02      0.22  -1580.21


     BFGS Geometry Optimization

     number of scf cycles    =   1
     number of bfgs steps    =   0

     enthalpy new            =    -305.5781590049 Ry

     new trust radius        =       0.5000000000 bohr
     new conv_thr            =       0.0000000100 Ry

     new unit-cell volume =    221.91906 a.u.^3 (    32.88501 Ang^3 )

CELL_PARAMETERS (alat=  6.33058253)
   1.347675062   0.000026285   0.000002188
   0.000013907   0.749703650  -0.432850173
   0.000001404   0.000018276   0.865732002

ATOMIC_POSITIONS (alat)
Zn       1.739287911   0.422443912  -0.044475581
Zn       1.067934779   0.172681425   0.388123398
O        0.909581137   0.422752249  -0.044809009
O        1.582923588   0.173022946   0.388549835



     Writing output data file ZNO.save
     charge density from previous step
     extrapolated charge   23.33510, renormalised to   36.00000

     total cpu time spent up to now is       19.7 secs

     per-process dynamical memory:    26.6 Mb

     Self-consistent Calculation

     iteration #  1     ecut=   140.00 Ry     beta=0.50
     Davidson diagonalization with overlap
     ethr =  1.00E-06,  avg # of iterations =  7.0

     total cpu time spent up to now is       21.8 secs

     total energy              =    -299.89946560 Ry
     Harris-Foulkes estimate   =    -350.85216282 Ry
     estimated scf accuracy    <       0.90888313 Ry

     iteration #  2     ecut=   140.00 Ry     beta=0.50
     Davidson diagonalization with overlap
     ethr =  2.52E-03,  avg # of iterations =  4.4

     total cpu time spent up to now is       23.3 secs

     total energy              =    -314.08489080 Ry
     Harris-Foulkes estimate   =    -315.15166718 Ry
     estimated scf accuracy    <      42.53008904 Ry

     iteration #  3     ecut=   140.00 Ry     beta=0.50
     Davidson diagonalization with overlap
     ethr =  2.52E-03,  avg # of iterations =  1.0

     total cpu time spent up to now is       24.0 secs

     total energy              =    -310.52981666 Ry
     Harris-Foulkes estimate   =    -314.10457732 Ry
     estimated scf accuracy    <      38.41567769 Ry

     iteration #  4     ecut=   140.00 Ry     beta=0.50
     Davidson diagonalization with overlap
     ethr =  2.52E-03,  avg # of iterations =  3.5

     total cpu time spent up to now is       25.0 secs

     total energy              =    -302.21787898 Ry
     Harris-Foulkes estimate   =    -310.84977897 Ry
     estimated scf accuracy    <      22.49090632 Ry

     iteration #  5     ecut=   140.00 Ry     beta=0.50
     Davidson diagonalization with overlap
     ethr =  2.52E-03,  avg # of iterations =  4.4

     total cpu time spent up to now is       26.5 secs

     total energy              =    -305.76664083 Ry
     Harris-Foulkes estimate   =    -305.94565289 Ry
     estimated scf accuracy    <       0.68741780 Ry

     iteration #  6     ecut=   140.00 Ry     beta=0.50
     Davidson diagonalization with overlap
     ethr =  1.91E-03,  avg # of iterations =  2.5

     total cpu time spent up to now is       27.5 secs

     total energy              =    -306.16871019 Ry
     Harris-Foulkes estimate   =    -306.32993371 Ry
     estimated scf accuracy    <       1.20427071 Ry

     iteration #  7     ecut=   140.00 Ry     beta=0.50
     Davidson diagonalization with overlap
     ethr =  1.91E-03,  avg # of iterations =  1.0

     total cpu time spent up to now is       28.3 secs

     total energy              =    -306.20935096 Ry
     Harris-Foulkes estimate   =    -306.18597510 Ry
     estimated scf accuracy    <       0.80514456 Ry

     iteration #  8     ecut=   140.00 Ry     beta=0.50
     Davidson diagonalization with overlap
     ethr =  1.91E-03,  avg # of iterations =  1.0

     total cpu time spent up to now is       29.0 secs

     total energy              =    -306.10124450 Ry
     Harris-Foulkes estimate   =    -306.21077052 Ry
     estimated scf accuracy    <       0.85336585 Ry

     iteration #  9     ecut=   140.00 Ry     beta=0.50
     Davidson diagonalization with overlap
     ethr =  1.91E-03,  avg # of iterations =  1.0

     total cpu time spent up to now is       29.8 secs

     total energy              =    -305.72560452 Ry
     Harris-Foulkes estimate   =    -306.10770591 Ry
     estimated scf accuracy    <       0.57393387 Ry

     iteration # 10     ecut=   140.00 Ry     beta=0.50
     Davidson diagonalization with overlap
     ethr =  1.59E-03,  avg # of iterations =  2.0

     total cpu time spent up to now is       30.8 secs

     total energy              =    -305.90224813 Ry
     Harris-Foulkes estimate   =    -305.92852153 Ry
     estimated scf accuracy    <       0.08355930 Ry

     iteration # 11     ecut=   140.00 Ry     beta=0.50
     Davidson diagonalization with overlap
     ethr =  2.32E-04,  avg # of iterations =  2.0

     total cpu time spent up to now is       31.6 secs

     total energy              =    -305.90142177 Ry
     Harris-Foulkes estimate   =    -305.90840620 Ry
     estimated scf accuracy    <       0.01939868 Ry

     iteration # 12     ecut=   140.00 Ry     beta=0.50
     Davidson diagonalization with overlap
     ethr =  5.39E-05,  avg # of iterations =  2.0

     total cpu time spent up to now is       32.7 secs

     total energy              =    -305.90389113 Ry
     Harris-Foulkes estimate   =    -305.90464407 Ry
     estimated scf accuracy    <       0.00225481 Ry

     iteration # 13     ecut=   140.00 Ry     beta=0.50
     Davidson diagonalization with overlap
     ethr =  6.26E-06,  avg # of iterations =  2.1

     total cpu time spent up to now is       33.6 secs

     total energy              =    -305.90418934 Ry
     Harris-Foulkes estimate   =    -305.90420391 Ry
     estimated scf accuracy    <       0.00020890 Ry

     iteration # 14     ecut=   140.00 Ry     beta=0.50
     Davidson diagonalization with overlap
     ethr =  5.80E-07,  avg # of iterations =  1.6

     total cpu time spent up to now is       34.4 secs

     total energy              =    -305.90416714 Ry
     Harris-Foulkes estimate   =    -305.90420079 Ry
     estimated scf accuracy    <       0.00014538 Ry

     iteration # 15     ecut=   140.00 Ry     beta=0.50
     Davidson diagonalization with overlap
     ethr =  4.04E-07,  avg # of iterations =  1.0

     total cpu time spent up to now is       35.1 secs

     total energy              =    -305.90414939 Ry
     Harris-Foulkes estimate   =    -305.90417160 Ry
     estimated scf accuracy    <       0.00005471 Ry

     iteration # 16     ecut=   140.00 Ry     beta=0.50
     Davidson diagonalization with overlap
     ethr =  1.52E-07,  avg # of iterations =  2.0

     total cpu time spent up to now is       36.1 secs

     total energy              =    -305.90415659 Ry
     Harris-Foulkes estimate   =    -305.90415740 Ry
     estimated scf accuracy    <       0.00000302 Ry

     iteration # 17     ecut=   140.00 Ry     beta=0.50
     Davidson diagonalization with overlap
     ethr =  8.40E-09,  avg # of iterations =  2.8

     total cpu time spent up to now is       37.4 secs

     total energy              =    -305.90415623 Ry
     Harris-Foulkes estimate   =    -305.90415741 Ry
     estimated scf accuracy    <       0.00000300 Ry

     iteration # 18     ecut=   140.00 Ry     beta=0.50
     Davidson diagonalization with overlap
     ethr =  8.34E-09,  avg # of iterations =  2.0

     total cpu time spent up to now is       38.3 secs

     total energy              =    -305.90415652 Ry
     Harris-Foulkes estimate   =    -305.90415657 Ry
     estimated scf accuracy    <       0.00000012 Ry

     iteration # 19     ecut=   140.00 Ry     beta=0.50
     Davidson diagonalization with overlap
     ethr =  3.22E-10,  avg # of iterations =  2.5

     total cpu time spent up to now is       39.3 secs

     End of self-consistent calculation

          k = 0.0000 0.0000 0.0000 (  9559 PWs)   bands (ev):

    -7.4090  -5.8118   5.3097   5.8752   5.8777   6.0671   6.1992   6.2015
     8.1903   8.1912   8.6953   8.6965   9.2768  13.0273  13.0294  14.1871
    14.4546  14.4555

          k = 0.0000-0.3334-0.5775 (  9592 PWs)   bands (ev):

    -6.0190  -5.5271   5.2473   5.3107   6.3241   6.5095   7.1124   7.2391
     8.2664   8.5648   8.8049   8.8865   9.1036   9.7607  10.2333  10.5138
    12.4642  12.9739

          k = 0.0000-0.6669 0.0000 (  9592 PWs)   bands (ev):

    -6.0204  -5.5257   5.2468   5.3104   6.3203   6.5084   7.1123   7.2345
     8.2676   8.5645   8.8048   8.8900   9.1055   9.7630  10.2317  10.5171
    12.4680  12.9768

          k =-0.3710 0.0000 0.0000 (  9554 PWs)   bands (ev):

    -6.6835  -6.6165   5.3276   5.3556   5.9504   5.9548   6.0022   6.0036
     8.5040   8.5043   8.5175   8.5183  11.7816  11.8143  13.7295  13.7321
    13.7487  13.7525

          k =-0.3710-0.3334-0.5775 (  9576 PWs)   bands (ev):

    -5.7661  -5.6984   4.7712   4.8053   6.5778   6.6049   6.6694   6.7121
     8.6229   8.6403   8.7639   8.7780   9.3736   9.3990  11.8475  11.8890
    12.4013  12.4118

          k =-0.3710-0.6669 0.0000 (  9576 PWs)   bands (ev):

    -5.7666  -5.6981   4.7721   4.8054   6.5834   6.5992   6.6598   6.7138
     8.6227   8.6401   8.7657   8.7781   9.3738   9.4021  11.8550  11.8867
    12.4019  12.4115

          k =-0.0000 0.3335-0.5776 (  9592 PWs)   bands (ev):

    -6.0205  -5.5254   5.2477   5.3094   6.3224   6.5064   7.1134   7.2356
     8.2670   8.5649   8.8046   8.8885   9.1071   9.7607  10.2341  10.5161
    12.4664  12.9755

          k = 0.3710 0.3335-0.5776 (  9576 PWs)   bands (ev):

    -5.7663  -5.6984   4.7716   4.8056   6.5788   6.6041   6.6663   6.7106
     8.6227   8.6401   8.7642   8.7780   9.3754   9.4011  11.8499  11.8898
    12.4005  12.4095

     highest occupied level (ev):    14.4555

!    total energy              =    -305.90415654 Ry
     Harris-Foulkes estimate   =    -305.90415654 Ry
     estimated scf accuracy    <          2.9E-09 Ry

     The total energy is the sum of the following terms:

     one-electron contribution =    -102.30779836 Ry
     hartree contribution      =      93.92970247 Ry
     xc contribution           =     -51.29221483 Ry
     ewald contribution        =    -246.23384582 Ry

     convergence has been achieved in  19 iterations

     Forces acting on atoms (Ry/au):

     atom    1 type  1   force =    -0.01901862    0.00153412    0.00066845
     atom    2 type  1   force =    -0.03740004    0.00050666   -0.00034386
     atom    3 type  2   force =     0.02282694   -0.00040486    0.00025204
     atom    4 type  2   force =     0.03359172   -0.00163592   -0.00057662

     Total force =     0.058450     Total SCF correction =     0.000131


     entering subroutine stress ...

          total   stress  (Ry/bohr**3)                   (kbar)     P= 1065.95
   0.00758801   0.00001462   0.00000224       1116.23      2.15      0.33
   0.00001462   0.00706539   0.00000779          2.15   1039.35      1.15
   0.00000224   0.00000779   0.00708521          0.33      1.15   1042.27


     number of scf cycles    =   2
     number of bfgs steps    =   1

     enthalpy old            =    -305.5781590049 Ry
     enthalpy new            =    -305.9041565407 Ry

     CASE: enthalpy_new < enthalpy_old

     new trust radius        =       0.1691185436 bohr
     new conv_thr            =       0.0000000100 Ry

     new unit-cell volume =    258.33434 a.u.^3 (    38.28120 Ang^3 )

CELL_PARAMETERS (alat=  6.33058253)
   1.424172346   0.000316144   0.000046211
   0.000160641   0.786695049  -0.454276554
   0.000029617   0.000119455   0.908760008

ATOMIC_POSITIONS (alat)
Zn       1.836528602   0.443813289  -0.046533345
Zn       1.125512111   0.181517273   0.407436789
O        0.963191015   0.443806250  -0.046923209
O        1.675597475   0.181818390   0.407883134



     Writing output data file ZNO.save
     charge density from previous step
     extrapolated charge   41.90733, renormalised to   36.00000

     total cpu time spent up to now is       41.1 secs

     per-process dynamical memory:    26.6 Mb

     Self-consistent Calculation

     iteration #  1     ecut=   140.00 Ry     beta=0.50
     Davidson diagonalization with overlap
     ethr =  1.00E-06,  avg # of iterations = 13.2

     total cpu time spent up to now is       43.6 secs

     total energy              =    -292.87024027 Ry
     Harris-Foulkes estimate   =    -286.48828954 Ry
     estimated scf accuracy    <       9.59064457 Ry

     iteration #  2     ecut=   140.00 Ry     beta=0.50
     Davidson diagonalization with overlap
     ethr =  1.00E-02,  avg # of iterations =  4.1

     total cpu time spent up to now is       45.0 secs

     total energy              =    -308.37944581 Ry
     Harris-Foulkes estimate   =    -313.28111040 Ry
     estimated scf accuracy    <      13.97400502 Ry

     iteration #  3     ecut=   140.00 Ry     beta=0.50
     Davidson diagonalization with overlap
     ethr =  1.00E-02,  avg # of iterations =  2.0

     total cpu time spent up to now is       45.9 secs

     total energy              =    -305.52322070 Ry
     Harris-Foulkes estimate   =    -308.74278857 Ry
     estimated scf accuracy    <       5.73806848 Ry

     iteration #  4     ecut=   140.00 Ry     beta=0.50
     Davidson diagonalization with overlap
     ethr =  1.00E-02,  avg # of iterations =  2.0

     total cpu time spent up to now is       46.9 secs

     total energy              =    -306.06611941 Ry
     Harris-Foulkes estimate   =    -306.16743053 Ry
     estimated scf accuracy    <       0.36864296 Ry

     iteration #  5     ecut=   140.00 Ry     beta=0.50
     Davidson diagonalization with overlap
     ethr =  1.02E-03,  avg # of iterations =  1.0

     total cpu time spent up to now is       48.2 secs

     total energy              =    -306.01434914 Ry
     Harris-Foulkes estimate   =    -306.08071985 Ry
     estimated scf accuracy    <       0.13881888 Ry

     iteration #  6     ecut=   140.00 Ry     beta=0.50
     Davidson diagonalization with overlap
     ethr =  3.86E-04,  avg # of iterations =  2.0

     total cpu time spent up to now is       49.1 secs

     total energy              =    -306.03311368 Ry
     Harris-Foulkes estimate   =    -306.03607715 Ry
     estimated scf accuracy    <       0.00481412 Ry

     iteration #  7     ecut=   140.00 Ry     beta=0.50
     Davidson diagonalization with overlap
     ethr =  1.34E-05,  avg # of iterations =  3.1

     total cpu time spent up to now is       50.2 secs

     total energy              =    -306.03507249 Ry
     Harris-Foulkes estimate   =    -306.03605695 Ry
     estimated scf accuracy    <       0.00259711 Ry

     iteration #  8     ecut=   140.00 Ry     beta=0.50
     Davidson diagonalization with overlap
     ethr =  7.21E-06,  avg # of iterations =  2.0

     total cpu time spent up to now is       51.0 secs

     total energy              =    -306.03511061 Ry
     Harris-Foulkes estimate   =    -306.03529630 Ry
     estimated scf accuracy    <       0.00035378 Ry

     iteration #  9     ecut=   140.00 Ry     beta=0.50
     Davidson diagonalization with overlap
     ethr =  9.83E-07,  avg # of iterations =  2.2

     total cpu time spent up to now is       52.0 secs

     total energy              =    -306.03518305 Ry
     Harris-Foulkes estimate   =    -306.03518299 Ry
     estimated scf accuracy    <       0.00000102 Ry

     iteration # 10     ecut=   140.00 Ry     beta=0.50
     Davidson diagonalization with overlap
     ethr =  2.83E-09,  avg # of iterations =  3.4

     total cpu time spent up to now is       53.1 secs

     total energy              =    -306.03518264 Ry
     Harris-Foulkes estimate   =    -306.03518371 Ry
     estimated scf accuracy    <       0.00000143 Ry

     iteration # 11     ecut=   140.00 Ry     beta=0.50
     Davidson diagonalization with overlap
     ethr =  2.83E-09,  avg # of iterations =  3.0

     total cpu time spent up to now is       54.2 secs

     total energy              =    -306.03518311 Ry
     Harris-Foulkes estimate   =    -306.03518353 Ry
     estimated scf accuracy    <       0.00000081 Ry

     iteration # 12     ecut=   140.00 Ry     beta=0.50
     Davidson diagonalization with overlap
     ethr =  2.24E-09,  avg # of iterations =  2.0

     total cpu time spent up to now is       55.2 secs

     End of self-consistent calculation

          k = 0.0000 0.0000 0.0000 (  9559 PWs)   bands (ev):

    -8.7871  -7.5773   3.7865   4.0429   4.0439   4.2610   4.2743   4.2761
     5.8378   5.8384   6.2107   6.2114   6.6670  10.2077  10.2095  11.0876
    11.3217  11.3231

          k = 0.0001-0.3177-0.5502 (  9592 PWs)   bands (ev):

    -7.7144  -7.3424   3.6390   3.7045   4.4484   4.7127   5.1231   5.1379
     5.9115   6.0925   6.2815   6.3554   6.6733   7.0463   7.6788   8.1112
     9.6254  10.0668

          k = 0.0001-0.6355 0.0001 (  9592 PWs)   bands (ev):

    -7.7139  -7.3415   3.6397   3.7054   4.4477   4.7115   5.1234   5.1374
     5.9112   6.0930   6.2815   6.3552   6.6769   7.0461   7.6810   8.1079
     9.6262  10.0645

          k =-0.3511 0.0001 0.0000 (  9554 PWs)   bands (ev):

    -8.2204  -8.1949   3.7155   3.7213   4.1061   4.1076   4.1273   4.1278
     6.0648   6.0651   6.0694   6.0699   8.8036   8.8176  10.7674  10.7686
    10.7715  10.7737

          k =-0.3510-0.3176-0.5501 (  9576 PWs)   bands (ev):

    -7.5172  -7.4918   3.2664   3.2777   4.7224   4.7252   4.7342   4.7399
     6.1450   6.1512   6.2723   6.2772   6.7935   6.8029   9.1630   9.1796
     9.5868   9.5950

          k =-0.3509-0.6354 0.0001 (  9576 PWs)   bands (ev):

    -7.5167  -7.4910   3.2670   3.2789   4.7231   4.7256   4.7318   4.7406
     6.1450   6.1516   6.2729   6.2774   6.7927   6.8053   9.1618   9.1753
     9.5866   9.5945

          k =-0.0001 0.3178-0.5502 (  9592 PWs)   bands (ev):

    -7.7147  -7.3412   3.6401   3.7039   4.4484   4.7101   5.1242   5.1371
     5.9111   6.0930   6.2813   6.3548   6.6782   7.0451   7.6812   8.1094
     9.6260  10.0652

          k = 0.3510 0.3178-0.5503 (  9576 PWs)   bands (ev):

    -7.5168  -7.4914   3.2669   3.2782   4.7233   4.7248   4.7341   4.7399
     6.1451   6.1513   6.2723   6.2771   6.7946   6.8044   9.1616   9.1775
     9.5851   9.5933

     highest occupied level (ev):    11.3231

!    total energy              =    -306.03518325 Ry
     Harris-Foulkes estimate   =    -306.03518326 Ry
     estimated scf accuracy    <          7.0E-09 Ry

     The total energy is the sum of the following terms:

     one-electron contribution =    -121.08237343 Ry
     hartree contribution      =     100.05169810 Ry
     xc contribution           =     -50.87954459 Ry
     ewald contribution        =    -234.12496333 Ry

     convergence has been achieved in  12 iterations

     Forces acting on atoms (Ry/au):

     atom    1 type  1   force =     0.00101860   -0.00017952   -0.00027393
     atom    2 type  1   force =    -0.00068962    0.00005697    0.00008612
     atom    3 type  2   force =     0.00090511   -0.00006564    0.00003052
     atom    4 type  2   force =    -0.00123409    0.00018819    0.00015728

     Total force =     0.002010     Total SCF correction =     0.000071


     entering subroutine stress ...

          total   stress  (Ry/bohr**3)                   (kbar)     P=   52.86
  -0.00001510  -0.00000410  -0.00000046         -2.22     -0.60     -0.07
  -0.00000410   0.00055287  -0.00000486         -0.60     81.33     -0.71
  -0.00000046  -0.00000486   0.00054033         -0.07     -0.71     79.49


     number of scf cycles    =   3
     number of bfgs steps    =   2

     enthalpy old            =    -305.9041565407 Ry
     enthalpy new            =    -306.0351832533 Ry

     CASE: enthalpy_new < enthalpy_old

     new trust radius        =       0.0256933526 bohr
     new conv_thr            =       0.0000000100 Ry

     new unit-cell volume =    260.86275 a.u.^3 (    38.65587 Ang^3 )

CELL_PARAMETERS (alat=  6.33058253)
   1.415840921   0.000166930   0.000029139
   0.000084949   0.793036979  -0.457859790
   0.000018986   0.000009724   0.915736422

ATOMIC_POSITIONS (alat)
Zn       1.825917900   0.447142313  -0.047006821
Zn       1.118881671   0.182804495   0.410541181
O        0.957593146   0.447248224  -0.047344654
O        1.665536230   0.183072129   0.410994570



     Writing output data file ZNO.save
     charge density from previous step
     extrapolated charge   36.35234, renormalised to   36.00000

     total cpu time spent up to now is       57.1 secs

     per-process dynamical memory:    26.6 Mb

     Self-consistent Calculation

     iteration #  1     ecut=   140.00 Ry     beta=0.50
     Davidson diagonalization with overlap
     ethr =  1.00E-06,  avg # of iterations =  5.4

     total cpu time spent up to now is       58.7 secs

     total energy              =    -306.02356332 Ry
     Harris-Foulkes estimate   =    -304.72307097 Ry
     estimated scf accuracy    <       0.01002298 Ry

     iteration #  2     ecut=   140.00 Ry     beta=0.50
     Davidson diagonalization with overlap
     ethr =  2.78E-05,  avg # of iterations =  3.2

     total cpu time spent up to now is       59.9 secs

     total energy              =    -306.03879477 Ry
     Harris-Foulkes estimate   =    -306.04563383 Ry
     estimated scf accuracy    <       0.02740939 Ry

     iteration #  3     ecut=   140.00 Ry     beta=0.50
     Davidson diagonalization with overlap
     ethr =  2.78E-05,  avg # of iterations =  2.0

     total cpu time spent up to now is       60.7 secs

     total energy              =    -306.03269611 Ry
     Harris-Foulkes estimate   =    -306.03959952 Ry
     estimated scf accuracy    <       0.01075800 Ry

     iteration #  4     ecut=   140.00 Ry     beta=0.50
     Davidson diagonalization with overlap
     ethr =  2.78E-05,  avg # of iterations =  2.0

     total cpu time spent up to now is       61.7 secs

     total energy              =    -306.03597379 Ry
     Harris-Foulkes estimate   =    -306.03618301 Ry
     estimated scf accuracy    <       0.00095328 Ry

     iteration #  5     ecut=   140.00 Ry     beta=0.50
     Davidson diagonalization with overlap
     ethr =  2.65E-06,  avg # of iterations =  1.1

     total cpu time spent up to now is       62.5 secs

     total energy              =    -306.03576536 Ry
     Harris-Foulkes estimate   =    -306.03600987 Ry
     estimated scf accuracy    <       0.00043439 Ry

     iteration #  6     ecut=   140.00 Ry     beta=0.50
     Davidson diagonalization with overlap
     ethr =  1.21E-06,  avg # of iterations =  2.0

     total cpu time spent up to now is       63.5 secs

     total energy              =    -306.03587875 Ry
     Harris-Foulkes estimate   =    -306.03588557 Ry
     estimated scf accuracy    <       0.00001630 Ry

     iteration #  7     ecut=   140.00 Ry     beta=0.50
     Davidson diagonalization with overlap
     ethr =  4.53E-08,  avg # of iterations =  2.0

     total cpu time spent up to now is       64.5 secs

     total energy              =    -306.03588103 Ry
     Harris-Foulkes estimate   =    -306.03588137 Ry
     estimated scf accuracy    <       0.00000093 Ry

     iteration #  8     ecut=   140.00 Ry     beta=0.50
     Davidson diagonalization with overlap
     ethr =  2.59E-09,  avg # of iterations =  2.5

     total cpu time spent up to now is       65.4 secs

     total energy              =    -306.03588111 Ry
     Harris-Foulkes estimate   =    -306.03588117 Ry
     estimated scf accuracy    <       0.00000011 Ry

     iteration #  9     ecut=   140.00 Ry     beta=0.50
     Davidson diagonalization with overlap
     ethr =  3.11E-10,  avg # of iterations =  2.4

     total cpu time spent up to now is       66.4 secs

     End of self-consistent calculation

          k = 0.0000 0.0000 0.0000 (  9559 PWs)   bands (ev):

    -8.8721  -7.6517   3.7283   3.9504   3.9515   4.1460   4.1891   4.1907
     5.6855   5.6861   6.0619   6.0627   6.4935   9.9751   9.9762  10.9203
    11.1173  11.1175

          k = 0.0000-0.3152-0.5460 (  9592 PWs)   bands (ev):

    -7.8276  -7.4521   3.5488   3.6335   4.3310   4.5828   4.9903   5.0359
     5.7613   5.9470   6.1352   6.2090   6.5687   6.8985   7.5273   7.9019
     9.4638   9.9063

          k = 0.0001-0.6305 0.0000 (  9592 PWs)   bands (ev):

    -7.8284  -7.4513   3.5496   3.6321   4.3294   4.5822   4.9904   5.0336
     5.7617   5.9469   6.1351   6.2099   6.5712   6.8990   7.5265   7.9034
     9.4659   9.9075

          k =-0.3531 0.0000 0.0000 (  9554 PWs)   bands (ev):

    -8.2966  -8.2757   3.5968   3.6034   4.0144   4.0163   4.0310   4.0315
     5.9198   5.9198   5.9242   5.9245   8.6675   8.6787  10.5497  10.5500
    10.5557  10.5567

          k =-0.3531-0.3152-0.5460 (  9576 PWs)   bands (ev):

    -7.6244  -7.6035   3.1644   3.1740   4.5851   4.5947   4.6111   4.6222
     5.9987   6.0044   6.1278   6.1326   6.6595   6.6664   8.9860   9.0007
     9.4738   9.4793

          k =-0.3531-0.6304 0.0000 (  9576 PWs)   bands (ev):

    -7.6247  -7.6034   3.1646   3.1743   4.5888   4.5916   4.6069   4.6229
     5.9985   6.0045   6.1284   6.1326   6.6592   6.6686   8.9894   8.9995
     9.4734   9.4784

          k =-0.0000 0.3152-0.5460 (  9592 PWs)   bands (ev):

    -7.8287  -7.4509   3.5500   3.6315   4.3304   4.5807   4.9911   5.0340
     5.7613   5.9472   6.1350   6.2091   6.5730   6.8977   7.5278   7.9031
     9.4653   9.9070

          k = 0.3531 0.3152-0.5460 (  9576 PWs)   bands (ev):

    -7.6245  -7.6035   3.1646   3.1740   4.5865   4.5941   4.6093   4.6219
     5.9986   6.0044   6.1279   6.1324   6.6606   6.6680   8.9874   9.0007
     9.4723   9.4771

     highest occupied level (ev):    11.1175

!    total energy              =    -306.03588114 Ry
     Harris-Foulkes estimate   =    -306.03588115 Ry
     estimated scf accuracy    <          2.7E-09 Ry

     The total energy is the sum of the following terms:

     one-electron contribution =    -122.34355679 Ry
     hartree contribution      =     100.48740751 Ry
     xc contribution           =     -50.85509060 Ry
     ewald contribution        =    -233.32464125 Ry

     convergence has been achieved in   9 iterations

     Forces acting on atoms (Ry/au):

     atom    1 type  1   force =    -0.01213059    0.00023394    0.00003480
     atom    2 type  1   force =    -0.01443966   -0.00019579   -0.00013731
     atom    3 type  2   force =     0.01387758    0.00019071    0.00026567
     atom    4 type  2   force =     0.01269267   -0.00022886   -0.00016316

     Total force =     0.026639     Total SCF correction =     0.000126


     entering subroutine stress ...

          total   stress  (Ry/bohr**3)                   (kbar)     P=   -5.57
   0.00016474   0.00000006   0.00000057         24.23      0.01      0.08
   0.00000006  -0.00014204   0.00000253          0.01    -20.89      0.37
   0.00000057   0.00000253  -0.00013625          0.08      0.37    -20.04


     number of scf cycles    =   4
     number of bfgs steps    =   3

     enthalpy old            =    -306.0351832533 Ry
     enthalpy new            =    -306.0358811437 Ry

     CASE: enthalpy_new < enthalpy_old

     new trust radius        =       0.0086856464 bohr
     new conv_thr            =       0.0000000100 Ry

     new unit-cell volume =    260.93594 a.u.^3 (    38.66672 Ang^3 )

CELL_PARAMETERS (alat=  6.33058253)
   1.418770492   0.000145714   0.000039993
   0.000069540   0.792299283  -0.457443530
   0.000025846   0.000031004   0.914940759

ATOMIC_POSITIONS (alat)
Zn       1.828564003   0.446722078  -0.046944353
Zn       1.119822361   0.182611651   0.410185965
O        0.960897888   0.446840273  -0.047259502
O        1.670151588   0.182871824   0.410642398



     Writing output data file ZNO.save
     charge density from previous step
     extrapolated charge   36.01010, renormalised to   36.00000

     total cpu time spent up to now is       68.4 secs

     per-process dynamical memory:    26.6 Mb

     Self-consistent Calculation

     iteration #  1     ecut=   140.00 Ry     beta=0.50
     Davidson diagonalization with overlap
     ethr =  1.00E-06,  avg # of iterations =  4.8

     total cpu time spent up to now is       70.0 secs

     total energy              =    -306.03064845 Ry
     Harris-Foulkes estimate   =    -306.01146915 Ry
     estimated scf accuracy    <       0.03112193 Ry

     iteration #  2     ecut=   140.00 Ry     beta=0.50
     Davidson diagonalization with overlap
     ethr =  8.64E-05,  avg # of iterations =  2.0

     total cpu time spent up to now is       71.0 secs

     total energy              =    -306.03607913 Ry
     Harris-Foulkes estimate   =    -306.03618008 Ry
     estimated scf accuracy    <       0.00053035 Ry

     iteration #  3     ecut=   140.00 Ry     beta=0.50
     Davidson diagonalization with overlap
     ethr =  1.47E-06,  avg # of iterations =  2.5

     total cpu time spent up to now is       72.0 secs

     total energy              =    -306.03622643 Ry
     Harris-Foulkes estimate   =    -306.03622302 Ry
     estimated scf accuracy    <       0.00007955 Ry

     iteration #  4     ecut=   140.00 Ry     beta=0.50
     Davidson diagonalization with overlap
     ethr =  2.21E-07,  avg # of iterations =  2.2

     total cpu time spent up to now is       72.9 secs

     total energy              =    -306.03623960 Ry
     Harris-Foulkes estimate   =    -306.03623724 Ry
     estimated scf accuracy    <       0.00002177 Ry

     iteration #  5     ecut=   140.00 Ry     beta=0.50
     Davidson diagonalization with overlap
     ethr =  6.05E-08,  avg # of iterations =  2.2

     total cpu time spent up to now is       73.7 secs

     total energy              =    -306.03624225 Ry
     Harris-Foulkes estimate   =    -306.03624232 Ry
     estimated scf accuracy    <       0.00000190 Ry

     iteration #  6     ecut=   140.00 Ry     beta=0.50
     Davidson diagonalization with overlap
     ethr =  5.29E-09,  avg # of iterations =  2.2

     total cpu time spent up to now is       74.6 secs

     total energy              =    -306.03624247 Ry
     Harris-Foulkes estimate   =    -306.03624249 Ry
     estimated scf accuracy    <       0.00000004 Ry

     iteration #  7     ecut=   140.00 Ry     beta=0.50
     Davidson diagonalization with overlap
     ethr =  1.11E-10,  avg # of iterations =  3.0

     total cpu time spent up to now is       76.0 secs

     End of self-consistent calculation

          k = 0.0000 0.0000 0.0000 (  9559 PWs)   bands (ev):

    -8.8721  -7.6606   3.7289   3.9349   3.9357   4.1590   4.1605   4.1732
     5.6857   5.6862   6.0602   6.0609   6.5084  10.0077  10.0085  10.8895
    11.1206  11.1209

          k = 0.0000-0.3155-0.5465 (  9592 PWs)   bands (ev):

    -7.8248  -7.4520   3.5499   3.6155   4.3389   4.5912   5.0122   5.0263
     5.7678   5.9367   6.1312   6.1958   6.5242   6.8960   7.5308   7.9223
     9.4642   9.8763

          k = 0.0001-0.6311 0.0000 (  9592 PWs)   bands (ev):

    -7.8253  -7.4513   3.5505   3.6148   4.3381   4.5904   5.0108   5.0266
     5.7679   5.9367   6.1311   6.1962   6.5265   6.8960   7.5310   7.9225
     9.4654   9.8765

          k =-0.3524 0.0000 0.0000 (  9554 PWs)   bands (ev):

    -8.2985  -8.2828   3.6204   3.6264   3.9964   3.9982   4.0083   4.0090
     5.9171   5.9172   5.9210   5.9211   8.6515   8.6602  10.5672  10.5675
    10.5733  10.5743

          k =-0.3524-0.3155-0.5465 (  9576 PWs)   bands (ev):

    -7.6210  -7.6053   3.1681   3.1758   4.5977   4.6057   4.6102   4.6177
     5.9920   5.9966   6.1216   6.1257   6.6486   6.6532   8.9783   8.9904
     9.4660   9.4707

          k =-0.3524-0.6310 0.0000 (  9576 PWs)   bands (ev):

    -7.6212  -7.6051   3.1684   3.1761   4.6016   4.6023   4.6065   4.6194
     5.9918   5.9967   6.1221   6.1255   6.6480   6.6554   8.9808   8.9881
     9.4664   9.4690

          k =-0.0000 0.3155-0.5465 (  9592 PWs)   bands (ev):

    -7.8256  -7.4510   3.5509   3.6140   4.3387   4.5891   5.0108   5.0271
     5.7677   5.9369   6.1310   6.1957   6.5282   6.8950   7.5319   7.9226
     9.4652   9.8764

          k = 0.3524 0.3155-0.5465 (  9576 PWs)   bands (ev):

    -7.6210  -7.6052   3.1683   3.1759   4.5994   4.6048   4.6086   4.6180
     5.9919   5.9966   6.1216   6.1254   6.6494   6.6548   8.9792   8.9896
     9.4650   9.4681

     highest occupied level (ev):    11.1209

!    total energy              =    -306.03624248 Ry
     Harris-Foulkes estimate   =    -306.03624248 Ry
     estimated scf accuracy    <          6.2E-09 Ry

     The total energy is the sum of the following terms:

     one-electron contribution =    -122.32578711 Ry
     hartree contribution      =     100.47409605 Ry
     xc contribution           =     -50.85396839 Ry
     ewald contribution        =    -233.33058303 Ry

     convergence has been achieved in   7 iterations

     Forces acting on atoms (Ry/au):

     atom    1 type  1   force =    -0.00499179    0.00012575   -0.00004015
     atom    2 type  1   force =    -0.00648982   -0.00001914   -0.00000934
     atom    3 type  2   force =     0.00633997   -0.00000016    0.00013308
     atom    4 type  2   force =     0.00514164   -0.00010645   -0.00008359

     Total force =     0.011564     Total SCF correction =     0.000070


     entering subroutine stress ...

          total   stress  (Ry/bohr**3)                   (kbar)     P=   -8.04
  -0.00009417   0.00000057   0.00000056        -13.85      0.08      0.08
   0.00000057  -0.00003528   0.00000045          0.08     -5.19      0.07
   0.00000056   0.00000045  -0.00003455          0.08      0.07     -5.08


     number of scf cycles    =   5
     number of bfgs steps    =   4

     enthalpy old            =    -306.0358811437 Ry
     enthalpy new            =    -306.0362424819 Ry

     CASE: enthalpy_new < enthalpy_old

     new trust radius        =       0.0102453917 bohr
     new conv_thr            =       0.0000000100 Ry

     new unit-cell volume =    260.71312 a.u.^3 (    38.63370 Ang^3 )

CELL_PARAMETERS (alat=  6.33058253)
   1.416559030   0.000153708   0.000067175
   0.000065449   0.792567141  -0.457598376
   0.000043252   0.000042579   0.915270496

ATOMIC_POSITIONS (alat)
Zn       1.824471329   0.446912717  -0.046931498
Zn       1.116469943   0.182677431   0.410352896
O        0.960973843   0.447004389  -0.047219677
O        1.668845342   0.182926552   0.410807395



     Writing output data file ZNO.save
     charge density from previous step
     extrapolated charge   35.96926, renormalised to   36.00000

     total cpu time spent up to now is       78.0 secs

     per-process dynamical memory:    26.6 Mb

     Self-consistent Calculation

     iteration #  1     ecut=   140.00 Ry     beta=0.50
     Davidson diagonalization with overlap
     ethr =  1.00E-06,  avg # of iterations =  5.1

     total cpu time spent up to now is       79.6 secs

     total energy              =    -306.02953161 Ry
     Harris-Foulkes estimate   =    -306.16738458 Ry
     estimated scf accuracy    <       0.03818610 Ry

     iteration #  2     ecut=   140.00 Ry     beta=0.50
     Davidson diagonalization with overlap
     ethr =  1.06E-04,  avg # of iterations =  2.0

     total cpu time spent up to now is       80.6 secs

     total energy              =    -306.03621564 Ry
     Harris-Foulkes estimate   =    -306.03640489 Ry
     estimated scf accuracy    <       0.00078221 Ry

     iteration #  3     ecut=   140.00 Ry     beta=0.50
     Davidson diagonalization with overlap
     ethr =  2.17E-06,  avg # of iterations =  2.9

     total cpu time spent up to now is       81.6 secs

     total energy              =    -306.03641231 Ry
     Harris-Foulkes estimate   =    -306.03641601 Ry
     estimated scf accuracy    <       0.00011983 Ry

     iteration #  4     ecut=   140.00 Ry     beta=0.50
     Davidson diagonalization with overlap
     ethr =  3.33E-07,  avg # of iterations =  2.6

     total cpu time spent up to now is       82.5 secs

     total energy              =    -306.03643368 Ry
     Harris-Foulkes estimate   =    -306.03643003 Ry
     estimated scf accuracy    <       0.00003118 Ry

     iteration #  5     ecut=   140.00 Ry     beta=0.50
     Davidson diagonalization with overlap
     ethr =  8.66E-08,  avg # of iterations =  2.2

     total cpu time spent up to now is       83.4 secs

     total energy              =    -306.03643750 Ry
     Harris-Foulkes estimate   =    -306.03643780 Ry
     estimated scf accuracy    <       0.00000417 Ry

     iteration #  6     ecut=   140.00 Ry     beta=0.50
     Davidson diagonalization with overlap
     ethr =  1.16E-08,  avg # of iterations =  2.2

     total cpu time spent up to now is       84.3 secs

     total energy              =    -306.03643796 Ry
     Harris-Foulkes estimate   =    -306.03643798 Ry
     estimated scf accuracy    <       0.00000005 Ry

     iteration #  7     ecut=   140.00 Ry     beta=0.50
     Davidson diagonalization with overlap
     ethr =  1.41E-10,  avg # of iterations =  3.0

     total cpu time spent up to now is       85.4 secs

     total energy              =    -306.03643798 Ry
     Harris-Foulkes estimate   =    -306.03643799 Ry
     estimated scf accuracy    <       0.00000001 Ry

     iteration #  8     ecut=   140.00 Ry     beta=0.50
     Davidson diagonalization with overlap
     ethr =  3.13E-11,  avg # of iterations =  2.2

     total cpu time spent up to now is       86.4 secs

     End of self-consistent calculation

          k = 0.0000 0.0000 0.0000 (  9559 PWs)   bands (ev):

    -8.8636  -7.6473   3.7527   3.9363   3.9370   4.1484   4.1497   4.2179
     5.6992   5.6998   6.0764   6.0770   6.5386  10.0418  10.0423  10.8778
    11.1389  11.1393

          k = 0.0001-0.3154-0.5463 (  9592 PWs)   bands (ev):

    -7.8145  -7.4399   3.5661   3.6138   4.3612   4.6064   5.0080   5.0805
     5.7897   5.9430   6.1466   6.1993   6.5037   6.9180   7.5529   7.9385
     9.4863   9.8649

          k = 0.0001-0.6308 0.0000 (  9592 PWs)   bands (ev):

    -7.8147  -7.4394   3.5665   3.6135   4.3610   4.6053   5.0074   5.0809
     5.7896   5.9432   6.1465   6.1993   6.5059   6.9176   7.5538   7.9379
     9.4868   9.8644

          k =-0.3530 0.0000 0.0000 (  9554 PWs)   bands (ev):

    -8.2838  -8.2757   3.6530   3.6586   3.9957   3.9972   4.0007   4.0015
     5.9323   5.9325   5.9357   5.9360   8.6674   8.6736  10.5934  10.5937
    10.5997  10.6006

          k =-0.3529-0.3154-0.5463 (  9576 PWs)   bands (ev):

    -7.6054  -7.5976   3.1788   3.1835   4.6163   4.6223   4.6243   4.6273
     6.0028   6.0061   6.1342   6.1375   6.6612   6.6643   8.9816   8.9897
     9.4959   9.5015

          k =-0.3529-0.6308 0.0000 (  9576 PWs)   bands (ev):

    -7.6055  -7.5973   3.1791   3.1838   4.6174   4.6213   4.6215   4.6296
     6.0027   6.0063   6.1346   6.1372   6.6602   6.6664   8.9829   8.9873
     9.4971   9.4989

          k =-0.0000 0.3154-0.5463 (  9592 PWs)   bands (ev):

    -7.8151  -7.4390   3.5670   3.6127   4.3612   4.6042   5.0072   5.0813
     5.7894   5.9433   6.1464   6.1991   6.5074   6.9168   7.5544   7.9382
     9.4869   9.8645

          k = 0.3530 0.3154-0.5463 (  9576 PWs)   bands (ev):

    -7.6054  -7.5974   3.1791   3.1836   4.6177   4.6215   4.6230   4.6281
     6.0027   6.0062   6.1342   6.1372   6.6616   6.6660   8.9821   8.9884
     9.4953   9.4988

     highest occupied level (ev):    11.1393

!    total energy              =    -306.03643798 Ry
     Harris-Foulkes estimate   =    -306.03643798 Ry
     estimated scf accuracy    <          1.3E-09 Ry

     The total energy is the sum of the following terms:

     one-electron contribution =    -122.20164383 Ry
     hartree contribution      =     100.43062022 Ry
     xc contribution           =     -50.85566161 Ry
     ewald contribution        =    -233.40975276 Ry

     convergence has been achieved in   8 iterations

     Forces acting on atoms (Ry/au):

     atom    1 type  1   force =    -0.00208054   -0.00001157   -0.00009987
     atom    2 type  1   force =    -0.00317780    0.00006466    0.00009075
     atom    3 type  2   force =     0.00279610   -0.00010513    0.00001838
     atom    4 type  2   force =     0.00246224    0.00005204   -0.00000926

     Total force =     0.005324     Total SCF correction =     0.000089


     entering subroutine stress ...

          total   stress  (Ry/bohr**3)                   (kbar)     P=   -3.91
  -0.00011918  -0.00000006   0.00000017        -17.53     -0.01      0.03
  -0.00000006   0.00002099  -0.00000105         -0.01      3.09     -0.15
   0.00000017  -0.00000105   0.00001855          0.03     -0.15      2.73


     number of scf cycles    =   6
     number of bfgs steps    =   5

     enthalpy old            =    -306.0362424819 Ry
     enthalpy new            =    -306.0364379829 Ry

     CASE: enthalpy_new < enthalpy_old

     new trust radius        =       0.0153441367 bohr
     new conv_thr            =       0.0000000100 Ry

     new unit-cell volume =    260.51806 a.u.^3 (    38.60479 Ang^3 )

CELL_PARAMETERS (alat=  6.33058253)
   1.411446183   0.000137801   0.000096833
   0.000047545   0.793742748  -0.458258853
   0.000062404   0.000019986   0.916552316

ATOMIC_POSITIONS (alat)
Zn       1.816074229   0.447571041  -0.047001858
Zn       1.110031998   0.182922776   0.410958569
O        0.959769898   0.447639468  -0.047239545
O        1.664780149   0.183156610   0.411395210



     Writing output data file ZNO.save
     charge density from previous step
     extrapolated charge   35.97307, renormalised to   36.00000

     total cpu time spent up to now is       88.2 secs

     per-process dynamical memory:    26.6 Mb

     Self-consistent Calculation

     iteration #  1     ecut=   140.00 Ry     beta=0.50
     Davidson diagonalization with overlap
     ethr =  1.00E-06,  avg # of iterations =  5.5

     total cpu time spent up to now is       89.9 secs

     total energy              =    -306.02178924 Ry
     Harris-Foulkes estimate   =    -306.17159220 Ry
     estimated scf accuracy    <       0.08276458 Ry

     iteration #  2     ecut=   140.00 Ry     beta=0.50
     Davidson diagonalization with overlap
     ethr =  2.30E-04,  avg # of iterations =  2.0

     total cpu time spent up to now is       90.8 secs

     total energy              =    -306.03618591 Ry
     Harris-Foulkes estimate   =    -306.03654076 Ry
     estimated scf accuracy    <       0.00164622 Ry

     iteration #  3     ecut=   140.00 Ry     beta=0.50
     Davidson diagonalization with overlap
     ethr =  4.57E-06,  avg # of iterations =  2.9

     total cpu time spent up to now is       91.8 secs

     total energy              =    -306.03656908 Ry
     Harris-Foulkes estimate   =    -306.03659423 Ry
     estimated scf accuracy    <       0.00029308 Ry

     iteration #  4     ecut=   140.00 Ry     beta=0.50
     Davidson diagonalization with overlap
     ethr =  8.14E-07,  avg # of iterations =  3.0

     total cpu time spent up to now is       92.7 secs

     total energy              =    -306.03662364 Ry
     Harris-Foulkes estimate   =    -306.03661960 Ry
     estimated scf accuracy    <       0.00007880 Ry

     iteration #  5     ecut=   140.00 Ry     beta=0.50
     Davidson diagonalization with overlap
     ethr =  2.19E-07,  avg # of iterations =  2.2

     total cpu time spent up to now is       93.6 secs

     total energy              =    -306.03663332 Ry
     Harris-Foulkes estimate   =    -306.03663364 Ry
     estimated scf accuracy    <       0.00000683 Ry

     iteration #  6     ecut=   140.00 Ry     beta=0.50
     Davidson diagonalization with overlap
     ethr =  1.90E-08,  avg # of iterations =  2.2

     total cpu time spent up to now is       94.5 secs

     total energy              =    -306.03663411 Ry
     Harris-Foulkes estimate   =    -306.03663415 Ry
     estimated scf accuracy    <       0.00000016 Ry

     iteration #  7     ecut=   140.00 Ry     beta=0.50
     Davidson diagonalization with overlap
     ethr =  4.46E-10,  avg # of iterations =  2.5

     total cpu time spent up to now is       95.5 secs

     total energy              =    -306.03663415 Ry
     Harris-Foulkes estimate   =    -306.03663415 Ry
     estimated scf accuracy    <       0.00000002 Ry

     iteration #  8     ecut=   140.00 Ry     beta=0.50
     Davidson diagonalization with overlap
     ethr =  6.16E-11,  avg # of iterations =  2.1

     total cpu time spent up to now is       96.4 secs

     End of self-consistent calculation

          k = 0.0000 0.0000 0.0000 (  9559 PWs)   bands (ev):

    -8.8556  -7.6276   3.7880   3.9359   3.9365   4.1323   4.1334   4.2789
     5.7099   5.7104   6.0922   6.0928   6.5715  10.0726  10.0727  10.8501
    11.1528  11.1530

          k = 0.0001-0.3149-0.5455 (  9592 PWs)   bands (ev):

    -7.8061  -7.4273   3.5862   3.6110   4.3889   4.6194   4.9999   5.1525
     5.8122   5.9446   6.1622   6.1940   6.4757   6.9442   7.5789   7.9434
     9.5087   9.8399

          k = 0.0001-0.6299 0.0000 (  9592 PWs)   bands (ev):

    -7.8065  -7.4268   3.5867   3.6103   4.3888   4.6183   4.9994   5.1529
     5.8121   5.9448   6.1621   6.1941   6.4773   6.9437   7.5795   7.9435
     9.5091   9.8399

          k =-0.3542 0.0000 0.0000 (  9554 PWs)   bands (ev):

    -8.2690  -8.2625   3.6935   3.6978   3.9865   3.9873   3.9930   3.9941
     5.9472   5.9477   5.9495   5.9501   8.6829   8.6908  10.6167  10.6169
    10.6220  10.6226

          k =-0.3542-0.3149-0.5455 (  9576 PWs)   bands (ev):

    -7.5924  -7.5873   3.1875   3.1891   4.6308   4.6359   4.6378   4.6408
     6.0116   6.0124   6.1461   6.1472   6.6724   6.6794   8.9731   8.9778
     9.5387   9.5477

          k =-0.3542-0.6299 0.0000 (  9576 PWs)   bands (ev):

    -7.5923  -7.5874   3.1878   3.1890   4.6296   4.6366   4.6391   4.6397
     6.0114   6.0125   6.1460   6.1472   6.6726   6.6802   8.9720   8.9789
     9.5391   9.5458

          k = 0.0000 0.3150-0.5455 (  9592 PWs)   bands (ev):

    -7.8067  -7.4264   3.5870   3.6099   4.3890   4.6174   4.9991   5.1532
     5.8120   5.9449   6.1620   6.1940   6.4787   6.9431   7.5801   7.9435
     9.5092   9.8398

          k = 0.3543 0.3149-0.5456 (  9576 PWs)   bands (ev):

    -7.5923  -7.5873   3.1880   3.1888   4.6306   4.6367   4.6383   4.6396
     6.0115   6.0124   6.1460   6.1469   6.6733   6.6804   8.9726   8.9782
     9.5380   9.5455

     highest occupied level (ev):    11.1530

!    total energy              =    -306.03663415 Ry
     Harris-Foulkes estimate   =    -306.03663415 Ry
     estimated scf accuracy    <          2.4E-09 Ry

     The total energy is the sum of the following terms:

     one-electron contribution =    -122.08740292 Ry
     hartree contribution      =     100.39048058 Ry
     xc contribution           =     -50.85662798 Ry
     ewald contribution        =    -233.48308383 Ry

     convergence has been achieved in   8 iterations

     Forces acting on atoms (Ry/au):

     atom    1 type  1   force =    -0.00017977   -0.00001887   -0.00004116
     atom    2 type  1   force =    -0.00044325    0.00002465    0.00009371
     atom    3 type  2   force =    -0.00038409   -0.00009248   -0.00001058
     atom    4 type  2   force =     0.00100711    0.00008670   -0.00004198

     Total force =     0.001192     Total SCF correction =     0.000137
     SCF correction compared to forces is large: reduce conv_thr to get better values


     entering subroutine stress ...

          total   stress  (Ry/bohr**3)                   (kbar)     P=   -1.49
  -0.00008948  -0.00000014  -0.00000021        -13.16     -0.02     -0.03
  -0.00000014   0.00002933   0.00000000         -0.02      4.31      0.00
  -0.00000021   0.00000000   0.00002979         -0.03      0.00      4.38


     number of scf cycles    =   7
     number of bfgs steps    =   6

     enthalpy old            =    -306.0364379829 Ry
     enthalpy new            =    -306.0366341499 Ry

     CASE: enthalpy_new < enthalpy_old

     new trust radius        =       0.0123263659 bohr
     new conv_thr            =       0.0000000100 Ry

     new unit-cell volume =    260.35170 a.u.^3 (    38.58014 Ang^3 )

CELL_PARAMETERS (alat=  6.33058253)
   1.406199322   0.000120644   0.000106501
   0.000035225   0.794949871  -0.458965824
   0.000068977   0.000029684   0.917983052

ATOMIC_POSITIONS (alat)
Zn       1.807844615   0.448250705  -0.047081012
Zn       1.103966867   0.183187410   0.411628553
O        0.957859750   0.448294636  -0.047271584
O        1.660342748   0.183422370   0.412023721



     Writing output data file ZNO.save
     charge density from previous step
     extrapolated charge   35.97701, renormalised to   36.00000

     total cpu time spent up to now is       98.3 secs

     per-process dynamical memory:    26.6 Mb

     Self-consistent Calculation

     iteration #  1     ecut=   140.00 Ry     beta=0.50
     Davidson diagonalization with overlap
     ethr =  1.00E-06,  avg # of iterations =  5.5

     total cpu time spent up to now is      100.0 secs

     total energy              =    -306.02697652 Ry
     Harris-Foulkes estimate   =    -306.14493175 Ry
     estimated scf accuracy    <       0.05408067 Ry

     iteration #  2     ecut=   140.00 Ry     beta=0.50
     Davidson diagonalization with overlap
     ethr =  1.50E-04,  avg # of iterations =  2.0

     total cpu time spent up to now is      101.1 secs

     total energy              =    -306.03638571 Ry
     Harris-Foulkes estimate   =    -306.03669374 Ry
     estimated scf accuracy    <       0.00120905 Ry

     iteration #  3     ecut=   140.00 Ry     beta=0.50
     Davidson diagonalization with overlap
     ethr =  3.36E-06,  avg # of iterations =  2.9

     total cpu time spent up to now is      102.2 secs

     total energy              =    -306.03665352 Ry
     Harris-Foulkes estimate   =    -306.03668574 Ry
     estimated scf accuracy    <       0.00022312 Ry

     iteration #  4     ecut=   140.00 Ry     beta=0.50
     Davidson diagonalization with overlap
     ethr =  6.20E-07,  avg # of iterations =  3.0

     total cpu time spent up to now is      103.1 secs

     total energy              =    -306.03669576 Ry
     Harris-Foulkes estimate   =    -306.03669383 Ry
     estimated scf accuracy    <       0.00005524 Ry

     iteration #  5     ecut=   140.00 Ry     beta=0.50
     Davidson diagonalization with overlap
     ethr =  1.53E-07,  avg # of iterations =  2.2

     total cpu time spent up to now is      104.0 secs

     total energy              =    -306.03670249 Ry
     Harris-Foulkes estimate   =    -306.03670277 Ry
     estimated scf accuracy    <       0.00000538 Ry

     iteration #  6     ecut=   140.00 Ry     beta=0.50
     Davidson diagonalization with overlap
     ethr =  1.49E-08,  avg # of iterations =  2.6

     total cpu time spent up to now is      104.9 secs

     total energy              =    -306.03670314 Ry
     Harris-Foulkes estimate   =    -306.03670317 Ry
     estimated scf accuracy    <       0.00000014 Ry

     iteration #  7     ecut=   140.00 Ry     beta=0.50
     Davidson diagonalization with overlap
     ethr =  3.92E-10,  avg # of iterations =  2.4

     total cpu time spent up to now is      105.9 secs

     total energy              =    -306.03670317 Ry
     Harris-Foulkes estimate   =    -306.03670317 Ry
     estimated scf accuracy    <       0.00000002 Ry

     iteration #  8     ecut=   140.00 Ry     beta=0.50
     Davidson diagonalization with overlap
     ethr =  5.26E-11,  avg # of iterations =  2.1

     total cpu time spent up to now is      106.7 secs

     End of self-consistent calculation

          k = 0.0000 0.0000 0.0000 (  9559 PWs)   bands (ev):

    -8.8487  -7.6080   3.8193   3.9383   3.9389   4.1232   4.1241   4.3296
     5.7179   5.7184   6.1055   6.1060   6.5967  10.0919  10.0920  10.8267
    11.1621  11.1624

          k = 0.0001-0.3145-0.5447 (  9592 PWs)   bands (ev):

    -7.7998  -7.4160   3.6006   3.6148   4.4124   4.6288   4.9960   5.2102
     5.8296   5.9462   6.1757   6.1883   6.4601   6.9670   7.6005   7.9430
     9.5258   9.8216

          k = 0.0001-0.6290 0.0000 (  9592 PWs)   bands (ev):

    -7.8000  -7.4155   3.6011   3.6143   4.4125   4.6277   4.9957   5.2105
     5.8295   5.9464   6.1756   6.1883   6.4618   6.9663   7.6014   7.9425
     9.5260   9.8212

          k =-0.3556 0.0000 0.0000 (  9554 PWs)   bands (ev):

    -8.2602  -8.2446   3.7265   3.7273   3.9786   3.9793   3.9926   3.9937
     5.9593   5.9597   5.9620   5.9625   8.6961   8.7078  10.6335  10.6337
    10.6354  10.6359

          k =-0.3555-0.3144-0.5446 (  9576 PWs)   bands (ev):

    -7.5875  -7.5721   3.1906   3.1965   4.6402   4.6439   4.6474   4.6554
     6.0167   6.0205   6.1550   6.1570   6.6847   6.6941   8.9627   8.9708
     9.5797   9.5886

          k =-0.3555-0.6289 0.0000 (  9576 PWs)   bands (ev):

    -7.5873  -7.5722   3.1908   3.1966   4.6381   4.6459   4.6497   4.6533
     6.0169   6.0204   6.1545   6.1575   6.6856   6.6941   8.9602   8.9724
     9.5795   9.5873

          k = 0.0000 0.3145-0.5447 (  9592 PWs)   bands (ev):

    -7.8003  -7.4153   3.6010   3.6143   4.4126   4.6271   4.9955   5.2107
     5.8294   5.9464   6.1756   6.1883   6.4626   6.9659   7.6017   7.9427
     9.5261   9.8212

          k = 0.3556 0.3145-0.5447 (  9576 PWs)   bands (ev):

    -7.5873  -7.5722   3.1908   3.1965   4.6392   4.6451   4.6487   4.6541
     6.0168   6.0204   6.1546   6.1572   6.6858   6.6944   8.9612   8.9717
     9.5789   9.5869

     highest occupied level (ev):    11.1624

!    total energy              =    -306.03670317 Ry
     Harris-Foulkes estimate   =    -306.03670317 Ry
     estimated scf accuracy    <          1.6E-09 Ry

     The total energy is the sum of the following terms:

     one-electron contribution =    -121.99080422 Ry
     hartree contribution      =     100.35666080 Ry
     xc contribution           =     -50.85728391 Ry
     ewald contribution        =    -233.54527584 Ry

     convergence has been achieved in   8 iterations

     Forces acting on atoms (Ry/au):

     atom    1 type  1   force =    -0.00036037   -0.00008925   -0.00006440
     atom    2 type  1   force =     0.00094249    0.00002348    0.00011689
     atom    3 type  2   force =    -0.00121953   -0.00006863   -0.00004504
     atom    4 type  2   force =     0.00063741    0.00013441   -0.00000746

     Total force =     0.001721     Total SCF correction =     0.000128


     entering subroutine stress ...

          total   stress  (Ry/bohr**3)                   (kbar)     P=   -0.05
  -0.00002077  -0.00000003  -0.00000040         -3.06     -0.00     -0.06
  -0.00000003   0.00001064  -0.00000092         -0.00      1.57     -0.14
  -0.00000040  -0.00000092   0.00000904         -0.06     -0.14      1.33


     number of scf cycles    =   8
     number of bfgs steps    =   7

     enthalpy old            =    -306.0366341499 Ry
     enthalpy new            =    -306.0367031720 Ry

     CASE: enthalpy_new < enthalpy_old

     new trust radius        =       0.0019071216 bohr
     new conv_thr            =       0.0000000100 Ry

     new unit-cell volume =    260.32929 a.u.^3 (    38.57682 Ang^3 )

CELL_PARAMETERS (alat=  6.33058253)
   1.405401872   0.000119173   0.000093712
   0.000038465   0.795162839  -0.459084625
   0.000060992   0.000011606   0.918189344

ATOMIC_POSITIONS (alat)
Zn       1.806579444   0.448354564  -0.047127845
Zn       1.103236202   0.183226887   0.411724996
O        0.957356892   0.448399674  -0.047302316
O        1.659697950   0.183477765   0.412093473



     Writing output data file ZNO.save
     charge density from previous step
     extrapolated charge   35.99690, renormalised to   36.00000

     total cpu time spent up to now is      108.7 secs

     per-process dynamical memory:    26.6 Mb

     Self-consistent Calculation

     iteration #  1     ecut=   140.00 Ry     beta=0.50
     Davidson diagonalization with overlap
     ethr =  1.00E-06,  avg # of iterations =  3.2

     total cpu time spent up to now is      110.0 secs

     total energy              =    -306.03660247 Ry
     Harris-Foulkes estimate   =    -306.04854802 Ry
     estimated scf accuracy    <       0.00061620 Ry

     iteration #  2     ecut=   140.00 Ry     beta=0.50
     Davidson diagonalization with overlap
     ethr =  1.71E-06,  avg # of iterations =  2.0

     total cpu time spent up to now is      111.0 secs

     total energy              =    -306.03670246 Ry
     Harris-Foulkes estimate   =    -306.03670975 Ry
     estimated scf accuracy    <       0.00002029 Ry

     iteration #  3     ecut=   140.00 Ry     beta=0.50
     Davidson diagonalization with overlap
     ethr =  5.64E-08,  avg # of iterations =  2.8

     total cpu time spent up to now is      112.0 secs

     total energy              =    -306.03670602 Ry
     Harris-Foulkes estimate   =    -306.03670710 Ry
     estimated scf accuracy    <       0.00000400 Ry

     iteration #  4     ecut=   140.00 Ry     beta=0.50
     Davidson diagonalization with overlap
     ethr =  1.11E-08,  avg # of iterations =  2.6

     total cpu time spent up to now is      113.0 secs

     total energy              =    -306.03670678 Ry
     Harris-Foulkes estimate   =    -306.03670679 Ry
     estimated scf accuracy    <       0.00000074 Ry

     iteration #  5     ecut=   140.00 Ry     beta=0.50
     Davidson diagonalization with overlap
     ethr =  2.07E-09,  avg # of iterations =  2.2

     total cpu time spent up to now is      113.9 secs

     total energy              =    -306.03670688 Ry
     Harris-Foulkes estimate   =    -306.03670688 Ry
     estimated scf accuracy    <       0.00000005 Ry

     iteration #  6     ecut=   140.00 Ry     beta=0.50
     Davidson diagonalization with overlap
     ethr =  1.39E-10,  avg # of iterations =  2.2

     total cpu time spent up to now is      114.9 secs

     End of self-consistent calculation

          k = 0.0000 0.0000 0.0000 (  9559 PWs)   bands (ev):

    -8.8478  -7.6051   3.8233   3.9396   3.9400   4.1231   4.1240   4.3351
     5.7189   5.7193   6.1072   6.1077   6.5994  10.0928  10.0931  10.8249
    11.1631  11.1632

          k = 0.0001-0.3144-0.5445 (  9592 PWs)   bands (ev):

    -7.7989  -7.4146   3.6034   3.6152   4.4154   4.6296   4.9968   5.2162
     5.8315   5.9468   6.1776   6.1878   6.4599   6.9697   7.6034   7.9416
     9.5275   9.8199

          k = 0.0001-0.6288 0.0000 (  9592 PWs)   bands (ev):

    -7.7994  -7.4141   3.6039   3.6145   4.4151   4.6287   4.9958   5.2165
     5.8315   5.9469   6.1775   6.1884   6.4614   6.9694   7.6036   7.9420
     9.5282   9.8202

          k =-0.3558 0.0000 0.0000 (  9554 PWs)   bands (ev):

    -8.2569  -8.2440   3.7294   3.7304   3.9803   3.9810   3.9914   3.9927
     5.9611   5.9614   5.9636   5.9639   8.6999   8.7092  10.6345  10.6349
    10.6367  10.6368

          k =-0.3557-0.3144-0.5445 (  9576 PWs)   bands (ev):

    -7.5850  -7.5720   3.1914   3.1968   4.6424   4.6462   4.6469   4.6566
     6.0180   6.0215   6.1564   6.1584   6.6878   6.6951   8.9625   8.9686
     9.5864   9.5928

          k =-0.3557-0.6288 0.0000 (  9576 PWs)   bands (ev):

    -7.5848  -7.5722   3.1916   3.1969   4.6400   4.6480   4.6493   4.6539
     6.0181   6.0213   6.1559   6.1590   6.6890   6.6950   8.9606   8.9710
     9.5861   9.5917

          k = 0.0000 0.3144-0.5446 (  9592 PWs)   bands (ev):

    -7.7995  -7.4139   3.6037   3.6146   4.4153   4.6281   4.9959   5.2167
     5.8314   5.9470   6.1774   6.1882   6.4621   6.9689   7.6041   7.9419
     9.5282   9.8201

          k = 0.3558 0.3144-0.5446 (  9576 PWs)   bands (ev):

    -7.5849  -7.5721   3.1916   3.1968   4.6414   4.6472   4.6481   4.6550
     6.0180   6.0214   6.1561   6.1586   6.6891   6.6954   8.9615   8.9699
     9.5857   9.5913

     highest occupied level (ev):    11.1632

!    total energy              =    -306.03670689 Ry
     Harris-Foulkes estimate   =    -306.03670689 Ry
     estimated scf accuracy    <          2.6E-09 Ry

     The total energy is the sum of the following terms:

     one-electron contribution =    -121.97903612 Ry
     hartree contribution      =     100.35262888 Ry
     xc contribution           =     -50.85734823 Ry
     ewald contribution        =    -233.55295143 Ry

     convergence has been achieved in   6 iterations

     Forces acting on atoms (Ry/au):

     atom    1 type  1   force =    -0.00063015    0.00000764    0.00000151
     atom    2 type  1   force =     0.00077112   -0.00003762    0.00003599
     atom    3 type  2   force =    -0.00076996   -0.00000604    0.00002919
     atom    4 type  2   force =     0.00062899    0.00003602   -0.00006669

     Total force =     0.001411     Total SCF correction =     0.000132


     entering subroutine stress ...

          total   stress  (Ry/bohr**3)                   (kbar)     P=    0.02
  -0.00000313   0.00000018  -0.00000021         -0.46      0.03     -0.03
   0.00000018   0.00000091   0.00000069          0.03      0.13      0.10
  -0.00000021   0.00000069   0.00000267         -0.03      0.10      0.39


     number of scf cycles    =   9
     number of bfgs steps    =   8

     enthalpy old            =    -306.0367031720 Ry
     enthalpy new            =    -306.0367068858 Ry

     CASE: enthalpy_new < enthalpy_old

     new trust radius        =       0.0017828933 bohr
     new conv_thr            =       0.0000000019 Ry

     new unit-cell volume =    260.31485 a.u.^3 (    38.57468 Ang^3 )

CELL_PARAMETERS (alat=  6.33058253)
   1.404943482   0.000129225   0.000076346
   0.000049429   0.795239459  -0.459144806
   0.000050094   0.000028830   0.918339542

ATOMIC_POSITIONS (alat)
Zn       1.805741155   0.448412237  -0.047153734
Zn       1.102986379   0.183254146   0.411797876
O        0.956906875   0.448448167  -0.047307779
O        1.659433579   0.183532918   0.412126598



     Writing output data file ZNO.save
     charge density from previous step
     extrapolated charge   35.99800, renormalised to   36.00000

     total cpu time spent up to now is      116.9 secs

     per-process dynamical memory:    26.6 Mb

     Self-consistent Calculation

     iteration #  1     ecut=   140.00 Ry     beta=0.50
     Davidson diagonalization with overlap
     ethr =  1.00E-06,  avg # of iterations =  3.2

     total cpu time spent up to now is      118.2 secs

     total energy              =    -306.03654263 Ry
     Harris-Foulkes estimate   =    -306.04446950 Ry
     estimated scf accuracy    <       0.00076367 Ry

     iteration #  2     ecut=   140.00 Ry     beta=0.50
     Davidson diagonalization with overlap
     ethr =  2.12E-06,  avg # of iterations =  2.1

     total cpu time spent up to now is      119.3 secs

     total energy              =    -306.03668751 Ry
     Harris-Foulkes estimate   =    -306.03673123 Ry
     estimated scf accuracy    <       0.00008233 Ry

     iteration #  3     ecut=   140.00 Ry     beta=0.50
     Davidson diagonalization with overlap
     ethr =  2.29E-07,  avg # of iterations =  3.0

     total cpu time spent up to now is      120.3 secs

     total energy              =    -306.03670713 Ry
     Harris-Foulkes estimate   =    -306.03671124 Ry
     estimated scf accuracy    <       0.00001091 Ry

     iteration #  4     ecut=   140.00 Ry     beta=0.50
     Davidson diagonalization with overlap
     ethr =  3.03E-08,  avg # of iterations =  2.6

     total cpu time spent up to now is      121.4 secs

     total energy              =    -306.03670930 Ry
     Harris-Foulkes estimate   =    -306.03670932 Ry
     estimated scf accuracy    <       0.00000080 Ry

     iteration #  5     ecut=   140.00 Ry     beta=0.50
     Davidson diagonalization with overlap
     ethr =  2.24E-09,  avg # of iterations =  2.6

     total cpu time spent up to now is      122.3 secs

     total energy              =    -306.03670945 Ry
     Harris-Foulkes estimate   =    -306.03670941 Ry
     estimated scf accuracy    <       0.00000010 Ry

     iteration #  6     ecut=   140.00 Ry     beta=0.50
     Davidson diagonalization with overlap
     ethr =  2.92E-10,  avg # of iterations =  1.1

     total cpu time spent up to now is      123.2 secs

     total energy              =    -306.03670946 Ry
     Harris-Foulkes estimate   =    -306.03670946 Ry
     estimated scf accuracy    <          4.8E-09 Ry

     iteration #  7     ecut=   140.00 Ry     beta=0.50
     Davidson diagonalization with overlap
     ethr =  1.34E-11,  avg # of iterations =  2.6

     total cpu time spent up to now is      124.5 secs

     End of self-consistent calculation

          k = 0.0000 0.0000 0.0000 (  9559 PWs)   bands (ev):

    -8.8472  -7.6034   3.8253   3.9406   3.9410   4.1234   4.1244   4.3375
     5.7195   5.7198   6.1083   6.1087   6.6006  10.0929  10.0934  10.8245
    11.1635  11.1638

          k = 0.0001-0.3143-0.5445 (  9592 PWs)   bands (ev):

    -7.7985  -7.4138   3.6069   3.6135   4.4168   4.6300   4.9973   5.2189
     5.8326   5.9473   6.1787   6.1882   6.4603   6.9712   7.6045   7.9413
     9.5287   9.8201

          k = 0.0001-0.6287 0.0000 (  9592 PWs)   bands (ev):

    -7.7988  -7.4133   3.6076   3.6129   4.4164   4.6291   4.9964   5.2191
     5.8325   5.9474   6.1786   6.1888   6.4621   6.9710   7.6050   7.9411
     9.5294   9.8199

          k =-0.3559 0.0000 0.0000 (  9554 PWs)   bands (ev):

    -8.2523  -8.2462   3.7299   3.7324   3.9842   3.9848   3.9886   3.9900
     5.9626   5.9626   5.9643   5.9644   8.7041   8.7083  10.6342  10.6350
    10.6375  10.6378

          k =-0.3558-0.3143-0.5444 (  9576 PWs)   bands (ev):

[...]

     total energy              =    -306.03671120 Ry
     Harris-Foulkes estimate   =    -306.03671121 Ry
     estimated scf accuracy    <       0.00000002 Ry

     iteration #  3     ecut=   140.00 Ry     beta=0.50
     Davidson diagonalization with overlap
     ethr =  4.90E-11,  avg # of iterations =  2.2

     total cpu time spent up to now is      173.0 secs

     total energy              =    -306.03671120 Ry
     Harris-Foulkes estimate   =    -306.03671120 Ry
     estimated scf accuracy    <          3.1E-09 Ry

     iteration #  4     ecut=   140.00 Ry     beta=0.50
     Davidson diagonalization with overlap
     ethr =  8.65E-12,  avg # of iterations =  2.2

     total cpu time spent up to now is      174.0 secs

     total energy              =    -306.03671120 Ry
     Harris-Foulkes estimate   =    -306.03671120 Ry
     estimated scf accuracy    <          5.0E-10 Ry

     iteration #  5     ecut=   140.00 Ry     beta=0.50
     Davidson diagonalization with overlap
     ethr =  1.39E-12,  avg # of iterations =  2.2

     total cpu time spent up to now is      174.9 secs

     End of self-consistent calculation

          k = 0.0000 0.0000 0.0000 (  9559 PWs)   bands (ev):

    -8.8474  -7.6040   3.8250   3.9398   3.9401   4.1223   4.1232   4.3380
     5.7192   5.7194   6.1078   6.1082   6.6005  10.0934  10.0941  10.8230
    11.1633  11.1635

          k = 0.0001-0.3144-0.5445 (  9592 PWs)   bands (ev):

    -7.7986  -7.4141   3.6072   3.6121   4.4169   4.6298   4.9964   5.2195
     5.8322   5.9466   6.1781   6.1870   6.4590   6.9705   7.6046   7.9414
     9.5281   9.8186

          k = 0.0001-0.6287 0.0000 (  9592 PWs)   bands (ev):

    -7.7991  -7.4135   3.6072   3.6122   4.4162   4.6289   4.9952   5.2197
     5.8323   5.9467   6.1780   6.1879   6.4609   6.9705   7.6048   7.9415
     9.5291   9.8188

          k =-0.3559 0.0000 0.0000 (  9554 PWs)   bands (ev):

    -8.2530  -8.2464   3.7297   3.7335   3.9821   3.9835   3.9890   3.9894
     5.9619   5.9625   5.9634   5.9641   8.7019   8.7084  10.6338  10.6347
    10.6382  10.6385

          k =-0.3558-0.3143-0.5445 (  9576 PWs)   bands (ev):

    -7.5807  -7.5753   3.1934   3.1950   4.6403   4.6493   4.6508   4.6535
     6.0195   6.0202   6.1571   6.1582   6.6888   6.6953   8.9613   8.9683
     9.5893   9.5942

          k =-0.3558-0.6287 0.0000 (  9576 PWs)   bands (ev):

    -7.5808  -7.5752   3.1937   3.1953   4.6419   4.6480   4.6488   4.6538
     6.0195   6.0202   6.1574   6.1582   6.6897   6.6958   8.9628   8.9670
     9.5874   9.5947

          k =-0.0000 0.3144-0.5445 (  9592 PWs)   bands (ev):

    -7.7990  -7.4136   3.6073   3.6120   4.4166   4.6288   4.9956   5.2197
     5.8322   5.9467   6.1780   6.1875   6.4606   6.9702   7.6049   7.9416
     9.5287   9.8187

          k = 0.3559 0.3144-0.5445 (  9576 PWs)   bands (ev):

    -7.5807  -7.5753   3.1938   3.1949   4.6415   4.6484   4.6503   4.6532
     6.0195   6.0202   6.1573   6.1580   6.6896   6.6957   8.9622   8.9676
     9.5882   9.5939

     highest occupied level (ev):    11.1635

!    total energy              =    -306.03671120 Ry
     Harris-Foulkes estimate   =    -306.03671120 Ry
     estimated scf accuracy    <          4.5E-11 Ry

     The total energy is the sum of the following terms:

     one-electron contribution =    -121.97496248 Ry
     hartree contribution      =     100.35122225 Ry
     xc contribution           =     -50.85736162 Ry
     ewald contribution        =    -233.55560935 Ry

     convergence has been achieved in   5 iterations

     Forces acting on atoms (Ry/au):

     atom    1 type  1   force =     0.00000229    0.00003099    0.00000056
     atom    2 type  1   force =    -0.00001279   -0.00002895   -0.00000231
     atom    3 type  2   force =     0.00001170    0.00000204    0.00003118
     atom    4 type  2   force =    -0.00000120   -0.00000408   -0.00002943

     Total force =     0.000063     Total SCF correction =     0.000011
     SCF correction compared to forces is large: reduce conv_thr to get better values


     entering subroutine stress ...

          total   stress  (Ry/bohr**3)                   (kbar)     P=   -0.00
   0.00000015  -0.00000002   0.00000002          0.02     -0.00      0.00
  -0.00000002  -0.00000050   0.00000033         -0.00     -0.07      0.05
   0.00000002   0.00000033   0.00000026          0.00      0.05      0.04


     bfgs converged in  15 scf cycles and  14 bfgs steps
     (criteria: energy <  2.0E-07, force <  2.0E-06, cell <  5.0E-01)

     End of BFGS Geometry Optimization

     Final enthalpy =    -306.0367112031 Ry
Begin final coordinates
     new unit-cell volume =    260.32337 a.u.^3 (    38.57594 Ang^3 )

CELL_PARAMETERS (alat=  6.33058253)
   1.405074137   0.000134839   0.000070946
   0.000054083   0.795219985  -0.459140883
   0.000046753   0.000017999   0.918312937

ATOMIC_POSITIONS (alat)
Zn       1.805580080   0.448421149  -0.047190210
Zn       1.103349980   0.183234300   0.411810456
O        0.956750877   0.448405475  -0.047292772
O        1.659902936   0.183560492   0.412078231
End final coordinates



     A final scf calculation at the relaxed structure.
     The G-vectors are recalculated for the final unit cell
     Results may differ from those at the preceding step.
 
     Parallelization info
     --------------------
     sticks:   dense  smooth     PW     G-vecs:    dense   smooth      PW
     Min         574     574    163                14539    14539    2176
     Max         575     575    164                14540    14540    2177
     Sum        2297    2297    653                58159    58159    8705
 


     bravais-lattice index     =            0
     lattice parameter (alat)  =       6.3306  a.u.
     unit-cell volume          =     260.3234 (a.u.)^3
     number of atoms/cell      =            4
     number of atomic types    =            2
     number of electrons       =        36.00
     number of Kohn-Sham states=           18
     kinetic-energy cutoff     =     140.0000  Ry
     charge density cutoff     =     560.0000  Ry
     convergence threshold     =      1.0E-10
     mixing beta               =       0.5000
     number of iterations used =            8  plain     mixing
     Exchange-correlation      = SLA-PW-PBX-PBC ( 1  4  3  4 0 0)

     celldm(1)=   6.330583  celldm(2)=   0.000000  celldm(3)=   0.000000
     celldm(4)=   0.000000  celldm(5)=   0.000000  celldm(6)=   0.000000

     crystal axes: (cart. coord. in units of alat)
               a(1) = (   1.405074   0.000135   0.000071 )  
               a(2) = (   0.000054   0.795220  -0.459141 )  
               a(3) = (   0.000047   0.000018   0.918313 )  

     reciprocal axes: (cart. coord. in units 2 pi/alat)
               b(1) = (  0.711706 -0.000069 -0.000036 )  
               b(2) = ( -0.000121  1.257499 -0.000025 )  
               b(3) = ( -0.000115  0.628728  1.088941 )  


     PseudoPot. # 1 for Zn read from file:
     /home/john/Data/PseudoPotentials/Zn.pbe-d-hgh.UPF
     MD5 check sum: 2c4cf50446965f9dcd248dd8eab3483b
     Pseudo is Norm-conserving, Zval = 12.0
     Generated in analytical, separable form
     Using radial grid of 1201 points,  6 beta functions with: 
                l(1) =   0
                l(2) =   0
                l(3) =   0
                l(4) =   1
                l(5) =   1
                l(6) =   2

     PseudoPot. # 2 for  O read from file:
     /home/john/Data/PseudoPotentials/O.pbe-hgh.UPF
     MD5 check sum: 631417d4da25374a53828d646ac41374
     Pseudo is Norm-conserving, Zval =  6.0
     Generated in analytical, separable form
     Using radial grid of 1095 points,  1 beta functions with: 
                l(1) =   0

     atomic species   valence    mass     pseudopotential
        Zn            12.00    65.40900     Zn( 1.00)
        O              6.00    15.99900      O( 1.00)

     No symmetry found



   Cartesian axes

     site n.     atom                  positions (alat units)
         1           Zn  tau(   1) = (   1.8055801   0.4484211  -0.0471902  )
         2           Zn  tau(   2) = (   1.1033500   0.1832343   0.4118105  )
         3           O   tau(   3) = (   0.9567509   0.4484055  -0.0472928  )
         4           O   tau(   4) = (   1.6599029   0.1835605   0.4120782  )

     number of k points=     8
                       cart. coord. in units 2pi/alat
        k(    1) = (   0.0000000   0.0000000   0.0000000), wk =   0.2500000
        k(    2) = (   0.0000577  -0.3143642  -0.5444705), wk =   0.2500000
        k(    3) = (   0.0000603  -0.6287497   0.0000123), wk =   0.2500000
        k(    4) = (  -0.3558531   0.0000347   0.0000181), wk =   0.2500000
        k(    5) = (  -0.3557955  -0.3143295  -0.5444524), wk =   0.2500000
        k(    6) = (  -0.3557928  -0.6287151   0.0000304), wk =   0.2500000
        k(    7) = (  -0.0000027   0.3143855  -0.5444829), wk =   0.2500000
        k(    8) = (   0.3558504   0.3143509  -0.5445010), wk =   0.2500000

     Dense  grid:    58159 G-vectors     FFT dimensions: (  72,  45,  45)

     Largest allocated arrays     est. size (Mb)     dimensions
        Kohn-Sham Wavefunctions         0.50 Mb     (    1833,   18)
        NL pseudopotentials             0.84 Mb     (    1833,   30)
        Each V/rho on FFT grid          0.59 Mb     (   38880)
        Each G-vector array             0.11 Mb     (   14540)
        G-vector shells                 0.11 Mb     (   13787)
     Largest temporary arrays     est. size (Mb)     dimensions
        Auxiliary wavefunctions         2.01 Mb     (    1833,   72)
        Each subspace H/S matrix        0.08 Mb     (      72,   72)
        Each <psi_i|beta_j> matrix      0.01 Mb     (      30,   18)
        Arrays for rho mixing           4.75 Mb     (   38880,    8)

     Initial potential from superposition of free atoms

     starting charge   33.99999, renormalised to   36.00000
     Starting wfc are random

     Writing output data file ZNO.save

     total cpu time spent up to now is      177.7 secs

     per-process dynamical memory:    21.0 Mb

     Self-consistent Calculation

     iteration #  1     ecut=   140.00 Ry     beta=0.50
     Davidson diagonalization with overlap
     ethr =  1.00E-06,  avg # of iterations = 18.2

     total cpu time spent up to now is      182.0 secs

     total energy              =    -301.24169094 Ry
     Harris-Foulkes estimate   =    -307.02921013 Ry
     estimated scf accuracy    <       8.54044452 Ry

     iteration #  2     ecut=   140.00 Ry     beta=0.50
     Davidson diagonalization with overlap
     ethr =  1.00E-02,  avg # of iterations =  3.2

     total cpu time spent up to now is      183.1 secs

     total energy              =    -305.21394965 Ry
     Harris-Foulkes estimate   =    -306.69256011 Ry
     estimated scf accuracy    <       3.14407344 Ry

     iteration #  3     ecut=   140.00 Ry     beta=0.50
     Davidson diagonalization with overlap
     ethr =  8.73E-03,  avg # of iterations =  2.0

     total cpu time spent up to now is      184.3 secs

     total energy              =    -305.44761758 Ry
     Harris-Foulkes estimate   =    -305.55401873 Ry
     estimated scf accuracy    <       0.32565560 Ry

     iteration #  4     ecut=   140.00 Ry     beta=0.50
     Davidson diagonalization with overlap
     ethr =  9.05E-04,  avg # of iterations =  2.0

     total cpu time spent up to now is      185.1 secs

     total energy              =    -305.43446754 Ry
     Harris-Foulkes estimate   =    -305.47300132 Ry
     estimated scf accuracy    <       0.08276282 Ry

     iteration #  5     ecut=   140.00 Ry     beta=0.50
     Davidson diagonalization with overlap
     ethr =  2.30E-04,  avg # of iterations =  2.0

     total cpu time spent up to now is      186.1 secs

     total energy              =    -305.44863232 Ry
     Harris-Foulkes estimate   =    -305.44884155 Ry
     estimated scf accuracy    <       0.00192844 Ry

     iteration #  6     ecut=   140.00 Ry     beta=0.50
     Davidson diagonalization with overlap
     ethr =  5.36E-06,  avg # of iterations =  3.1

     total cpu time spent up to now is      187.1 secs

     total energy              =    -305.44919514 Ry
     Harris-Foulkes estimate   =    -305.44913433 Ry
     estimated scf accuracy    <       0.00027044 Ry

     iteration #  7     ecut=   140.00 Ry     beta=0.50
     Davidson diagonalization with overlap
     ethr =  7.51E-07,  avg # of iterations =  2.0

     total cpu time spent up to now is      187.8 secs

     total energy              =    -305.44918291 Ry
     Harris-Foulkes estimate   =    -305.44921857 Ry
     estimated scf accuracy    <       0.00006772 Ry

     iteration #  8     ecut=   140.00 Ry     beta=0.50
     Davidson diagonalization with overlap
     ethr =  1.88E-07,  avg # of iterations =  2.2

     total cpu time spent up to now is      188.8 secs

     total energy              =    -305.44919766 Ry
     Harris-Foulkes estimate   =    -305.44919747 Ry
     estimated scf accuracy    <       0.00000110 Ry

     iteration #  9     ecut=   140.00 Ry     beta=0.50
     Davidson diagonalization with overlap
     ethr =  3.05E-09,  avg # of iterations =  2.9

     total cpu time spent up to now is      189.7 secs

     total energy              =    -305.44919800 Ry
     Harris-Foulkes estimate   =    -305.44919800 Ry
     estimated scf accuracy    <       0.00000020 Ry

     iteration # 10     ecut=   140.00 Ry     beta=0.50
     Davidson diagonalization with overlap
     ethr =  5.49E-10,  avg # of iterations =  2.6

     total cpu time spent up to now is      190.7 secs

     total energy              =    -305.44919801 Ry
     Harris-Foulkes estimate   =    -305.44919805 Ry
     estimated scf accuracy    <       0.00000009 Ry

     iteration # 11     ecut=   140.00 Ry     beta=0.50
     Davidson diagonalization with overlap
     ethr =  2.37E-10,  avg # of iterations =  2.0

     total cpu time spent up to now is      191.7 secs

     total energy              =    -305.44919803 Ry
     Harris-Foulkes estimate   =    -305.44919803 Ry
     estimated scf accuracy    <          3.7E-09 Ry

     iteration # 12     ecut=   140.00 Ry     beta=0.50
     Davidson diagonalization with overlap
     ethr =  1.03E-11,  avg # of iterations =  2.9

     total cpu time spent up to now is      192.7 secs

     total energy              =    -305.44919803 Ry
     Harris-Foulkes estimate   =    -305.44919803 Ry
     estimated scf accuracy    <          4.4E-10 Ry

     iteration # 13     ecut=   140.00 Ry     beta=0.50
     Davidson diagonalization with overlap
     ethr =  1.22E-12,  avg # of iterations =  2.6

     total cpu time spent up to now is      193.6 secs

     End of self-consistent calculation

          k = 0.0000 0.0000 0.0000 (  7233 PWs)   bands (ev):

    -8.8535  -7.6103   3.8350   4.0028   4.0034   4.1825   4.1834   4.4146
     5.8037   5.8041   6.2059   6.2063   6.7077  10.1506  10.1515  10.8800
    11.2234  11.2240

          k = 0.0001-0.3144-0.5445 (  7296 PWs)   bands (ev):

    -7.8076  -7.4223   3.6301   3.6461   4.4637   4.6749   5.0441   5.2836
     5.9128   6.0123   6.2430   6.2840   6.5095   7.0442   7.6534   7.9746
     9.5783   9.8569

          k = 0.0001-0.6287 0.0000 (  7296 PWs)   bands (ev):

    -7.8081  -7.4217   3.6293   3.6469   4.4630   4.6739   5.0428   5.2838
     5.9128   6.0124   6.2440   6.2841   6.5111   7.0442   7.6535   7.9748
     9.5794   9.8570

          k =-0.3559 0.0000 0.0000 (  7210 PWs)   bands (ev):

    -8.2596  -8.2533   3.7803   3.7843   4.0458   4.0473   4.0529   4.0534
     6.0645   6.0653   6.0663   6.0669   8.7807   8.7871  10.6974  10.6985
    10.7022  10.7027

          k =-0.3558-0.3143-0.5445 (  7276 PWs)   bands (ev):

    -7.5887  -7.5835   3.2228   3.2242   4.6973   4.7040   4.7064   4.7068
     6.0943   6.0953   6.2377   6.2389   6.7685   6.7749   9.0070   9.0139
     9.6377   9.6431

          k =-0.3558-0.6287 0.0000 (  7276 PWs)   bands (ev):

    -7.5888  -7.5834   3.2231   3.2245   4.6990   4.7018   4.7053   4.7072
     6.0944   6.0953   6.2379   6.2388   6.7694   6.7753   9.0086   9.0126
     9.6358   9.6437

          k =-0.0000 0.3144-0.5445 (  7296 PWs)   bands (ev):

    -7.8080  -7.4218   3.6293   3.6466   4.4635   4.6737   5.0436   5.2840
     5.9126   6.0128   6.2431   6.2841   6.5107   7.0439   7.6536   7.9751
     9.5790   9.8573

          k = 0.3559 0.3144-0.5445 (  7276 PWs)   bands (ev):

    -7.5887  -7.5835   3.2231   3.2241   4.6985   4.7034   4.7057   4.7067
     6.0946   6.0955   6.2374   6.2382   6.7692   6.7751   9.0083   9.0134
     9.6366   9.6428

     highest occupied level (ev):    11.2240

!    total energy              =    -305.44919803 Ry
     Harris-Foulkes estimate   =    -305.44919803 Ry
     estimated scf accuracy    <          3.7E-11 Ry

     The total energy is the sum of the following terms:

     one-electron contribution =    -120.94526250 Ry
     hartree contribution      =      99.88349407 Ry
     xc contribution           =     -50.83182025 Ry
     ewald contribution        =    -233.55560935 Ry

     convergence has been achieved in  13 iterations

     Forces acting on atoms (Ry/au):

     atom    1 type  1   force =     0.00054160   -0.00077267   -0.00044499
     atom    2 type  1   force =     0.00057968   -0.00102487   -0.00059433
     atom    3 type  2   force =     0.00026013    0.00095622    0.00057290
     atom    4 type  2   force =    -0.00138141    0.00084132    0.00046641

     Total force =     0.002640     Total SCF correction =     0.000026


     entering subroutine stress ...

          total   stress  (Ry/bohr**3)                   (kbar)     P=-1494.54
  -0.01049393   0.00000713   0.00000445      -1543.71      1.05      0.65
   0.00000713  -0.00999170  -0.00000191          1.05  -1469.83     -0.28
   0.00000445  -0.00000191  -0.00999349          0.65     -0.28  -1470.09


     Writing output data file ZNO.save
 
     init_run     :      2.41s CPU      2.59s WALL (       2 calls)
     electrons    :    154.05s CPU    161.03s WALL (      16 calls)
     update_pot   :      4.94s CPU      5.21s WALL (      14 calls)
     forces       :     10.21s CPU     10.62s WALL (      16 calls)
     stress       :     11.75s CPU     14.39s WALL (      16 calls)

     Called by init_run:
     wfcinit      :      0.50s CPU      0.55s WALL (       2 calls)
     potinit      :      1.05s CPU      1.10s WALL (       2 calls)

     Called by electrons:
     c_bands      :    129.14s CPU    134.42s WALL (     144 calls)
     sum_band     :     19.65s CPU     20.99s WALL (     144 calls)
     v_of_rho     :      4.57s CPU      4.86s WALL (     157 calls)
     mix_rho      :      0.85s CPU      0.86s WALL (     144 calls)

     Called by c_bands:
     init_us_2    :      2.56s CPU      2.64s WALL (    2576 calls)
     cegterg      :    121.67s CPU    126.67s WALL (    1152 calls)

     Called by sum_band:

     Called by *egterg:
     h_psi        :    102.07s CPU    106.12s WALL (    4309 calls)
     g_psi        :      1.05s CPU      1.07s WALL (    3141 calls)
     cdiaghg      :      3.22s CPU      3.36s WALL (    4157 calls)

     Called by h_psi:
     add_vuspsi   :      2.46s CPU      2.65s WALL (    4309 calls)

     General routines
     calbec       :      4.51s CPU      4.69s WALL (    4949 calls)
     fft          :      2.30s CPU      2.48s WALL (    1831 calls)
     fftw         :    104.45s CPU    109.04s WALL (  144656 calls)
     davcio       :      0.00s CPU      0.00s WALL (      16 calls)
 
     Parallel routines
     fft_scatter  :     28.28s CPU     29.98s WALL (  146487 calls)
 
     PWSCF        :  3m 4.01s CPU     3m14.72s WALL

 
   This run was terminated on:  21:13: 2  12May2016            

=------------------------------------------------------------------------------=
   JOB DONE.
=------------------------------------------------------------------------------=
