 +-------------------------------------------------+
 |                                                 |
 |      CCC   AA    SSS  TTTTT  EEEEE  PPPP        |
 |     C     A  A  S       T    E      P   P       |
 |     C     AAAA   SS     T    EEE    PPPP        |
 |     C     A  A     S    T    E      P           |
 |      CCC  A  A  SSS     T    EEEEE  P           |
 |                                                 |
 +-------------------------------------------------+
 |                                                 |
 | Welcome to Academic Release CASTEP version 17.21|          
 | Ab Initio Total Energy Program                  |
 |                                                 |
 | Authors:                                        |
 | M. Segall, M. Probert, C. Pickard, P. Hasnip,   |
 | S. Clark, K. Refson, J. R. Yates, M. Payne      |
 |                                                 |
 | Contributors:                                   |
 | P. Lindan, P. Haynes, J. White, V. Milman,      |
 | N. Govind, M. Gibson, P. Tulip, V. Cocula,      |
 | B. Montanari, D. Quigley, M. Glover,            |
 | L. Bernasconi, A. Perlov, M. Plummer,           |
 | E. McNellis, J. Meyer, J. Gale, D. Jochym       |
 | J. Aarons, B. Walker, R. Gillen, D. Jones       |
 | T. Green, I. J. Bush, C. J. Armstrong,          |
 | E. J. Higgins, E. L. Brown, M. S. McFly,        |
 | J. Wilkins, B-C. Shih, P. J. P. Byrne           |
 |                                                 |
 | Copyright (c) 2000 - 2017                       |
 |                                                 |
 |     Distributed under the terms of an           |
 |     Agreement between the United Kingdom        |
 |     Car-Parrinello (UKCP) Consortium,           |
 |     Daresbury Laboratory and Accelrys, Inc.     |
 |                                                 |
 | Please cite                                     |
 |                                                 |
 |     "First principles methods using CASTEP"     |
 |                                                 |
 |         Zeitschrift fuer Kristallographie       |
 |           220(5-6) pp. 567-570 (2005)           |
 |                                                 |
 | S. J. Clark, M. D. Segall, C. J. Pickard,       |
 | P. J. Hasnip, M. J. Probert, K. Refson,         |
 | M. C. Payne                                     |
 |                                                 |
 |       in all publications arising from          |
 |              your use of CASTEP                 |
 |                                                 |
 +-------------------------------------------------+


 Compiled for linux_x86_64_gfortran7.0 on Tue, 21 Nov 2017 10:27:43 +0000
 from code version 056e886bd5a1+ Castep172_branch Mon, 15 May 2017 14:45:35 +0100
 Compiler: GNU Fortran 7.2.0; Optimisation: fast
 MATHLIBS: Intel MKL(2017.0.1) (LAPACK version 3.6.0)
 FFT Lib : fftw3 version fftw-3.3.6-pl1-fma-avx2-avx2_128
 Fundamental constants values: CODATA 2010

 Run started: Fri, 08 Dec 2017 11:05:00 +0000
 +-------------------------------------------------+
 |                                                 |
 |  D D D D    F F F F F  P P P P     T T T T T    |
 |  D       D  F          P       P       T        |
 |  D       D  F F F F    P P P P         T        |
 |  D       D  F          P               T        |
 |  D D D D    F          P               T        |
 |                                                 |
 +-------------------------------------------------+
 |                                                 |
 | Welcome to Castep Linear Response (DFPT)        |
 |                                                 |
 | Copyright (c) 2006 - 2017                       |
 |                                                 |
 | Please cite the following publications in all   |
 | work arising from your use of CASTEP LR.        |
 |                                                 |
 | K. Refson, S. J. Clark and P. R. Tulip          |
 | Variational density functional perturbation     |
 | theory for dielectrics and lattice dynamics     |
 | Phys. Rev. B 73(15), 155114 (2006)              |
 +-------------------------------------------------+


 Pseudo atomic calculation performed for H 1s1

 Converged in 28 iterations to a total energy of -12.4815 eV


 Pseudo atomic calculation performed for C 2s2 2p2

 Converged in 39 iterations to a total energy of -152.4348 eV


 Pseudo atomic calculation performed for O 2s2 2p4

 Converged in 103 iterations to a total energy of -429.3371 eV

 Calculation not parallelised.

 ************************************ Title ************************************
 

 ***************************** General Parameters ******************************
  
 output verbosity                               : normal  (1)
 write checkpoint data to                       : phonon.check
 type of calculation                            : Phonon followed by E-field
 stress calculation                             : on
 density difference calculation                 : off
 electron localisation func (ELF) calculation   : off
 Hirshfeld analysis                             : off
 unlimited duration calculation
 timing information                             : on
 memory usage estimate                          : on
 write final potential to formatted file        : off
 write final density to formatted file          : off
 write structure in CIF formatted file          : on
 write structure in CELL formatted file         : on
 write BibTeX reference list                    : on
 write OTFG pseudopotential files               : on
 write electrostatic potential file             : on
 write bands file                               : on
 checkpoint writing                             : both castep_bin and check files
  
 output         length unit                     : A
 output           mass unit                     : amu
 output           time unit                     : ps
 output         charge unit                     : e
 output           spin unit                     : hbar/2
 output         energy unit                     : eV
 output          force unit                     : eV/A
 output       velocity unit                     : A/ps
 output       pressure unit                     : GPa
 output     inv_length unit                     : 1/A
 output      frequency unit                     : cm-1
 output force constant unit                     : eV/A**2
 output         volume unit                     : A**3
 output   IR intensity unit                     : (D/A)**2/amu
 output         dipole unit                     : D
 output         efield unit                     : eV/A/e
 output        entropy unit                     : J/mol/K
  
 wavefunctions paging                           : none
 random number generator seed                   : randomised (110500932)
 data distribution                              : optimal for this architecture
 optimization strategy                          : maximize speed(+++)

 *********************** Exchange-Correlation Parameters ***********************
  
 using functional                               : Perdew Burke Ernzerhof
 relativistic treatment                         : Koelling-Harmon
 DFT+D: Semi-empirical dispersion correction    : off

 ************************* Pseudopotential Parameters **************************
  
 pseudopotential representation                 : reciprocal space
 <beta|phi> representation                      : reciprocal space
 spin-orbit coupling                            : off

 **************************** Basis Set Parameters *****************************
  
 plane wave basis set cut-off                   :  1000.0000   eV
 size of standard grid                          :     1.7500
 size of   fine   gmax                          :    28.3515   1/A
 largest prime factor in FFT                    :          5
 finite basis set correction                    : none

 **************************** Electronic Parameters ****************************
  
 number of  electrons                           :  288.0    
 net charge of system                           :  0.000    
 treating system as non-spin-polarized
 number of bands                                :        144

 ********************* Electronic Minimization Parameters **********************
  
 Method: Treating system as non-metallic,
         and number of  SD  steps               :          1
         and number of  CG  steps               :          8
  
 total energy / atom convergence tol.           : 0.5000E-13   eV
 max force / atom convergence tol.              : ignored
 convergence tolerance window                   :          3   cycles
 max. number of SCF cycles                      :        200
 periodic dipole correction                     : NONE

 *********************** Population Analysis Parameters ************************
  
 Population analysis with cutoff                :  3.000       A

 ****************************** Phonon Parameters ******************************
  
 phonon calculation method                      : linear response
 phonon convergence tolerance                   : 0.1000E-04   eV/A**2
 max. number of phonon cycles                   :         50
 max. number of phonon CG steps                 :          0
 convergence tolerance window                   :          2   cycles
 DFPT solver method                             : AllBands (Gonze variational method)
 preconditioning scheme                         : TPA     
 fine phonon calculation method                 : none
 LO/TO splitting term                           : included
 acoustic phonon sum rule                       : correct D(q) in recip-space
 Born effective charges                         : calculated
 Born charge sum rule                           : explicitly enforced
 Raman intensities                              : not calculated
 phonon k-points                                : use reduced set
 phonon DOS                                     : not calculated
 no timed backups

 ***************************** E-Field Parameters ******************************
  
 E-field convergence tolerance                  : 0.1000E-04   A**3
 DFPT solver method                             : AllBands (Gonze variational method)
 ionic contribution to permittivity             : included
 treating system as a crystal, 
 => ignoring 3 lowest modes when calculating ionic  contribution to permittivity
 calculation with frequency spacing             : 0.4556E-05   cm-1
 Q-factor for lineshape broadening              :    50.0000
 max. number of E-field cycles                  :         50
 max. number of E-field CG steps                :          0
 convergence tolerance window                   :          2   cycles
 band convergence tolerance                     : 0.1000E-08   eV

 *******************************************************************************
  

                           -------------------------------
                                      Unit Cell
                           -------------------------------
        Real Lattice(A)                      Reciprocal Lattice(1/A)
   4.7253413   0.0000000  -0.0090722        1.3304024   0.0000000   0.3769735
   0.0000000  21.6002657   0.0000000        0.0000000   0.2908846   0.0000000
  -2.1158389   0.0000000   7.4671487        0.0016164   0.0000000   0.8419017

                       Lattice parameters(A)       Cell Angles
                    a =    4.725350          alpha =   90.000000
                    b =   21.600266          beta  =  105.930239
                    c =    7.761126          gamma =   90.000000

                       Current cell volume =  761.746986       A**3
                                   density =    0.946014   AMU/A**3
                                           =    1.570894     g/cm^3

                           -------------------------------
                                     Cell Contents
                           -------------------------------
                         Total number of ions in cell =   96
                      Total number of species in cell =    3
                        Max number of any one species =   48

            xxxxxxxxxxxxxxxxxxxxxxxxxxxxxxxxxxxxxxxxxxxxxxxxxxxxxxxxxxxx
            x  Element    Atom        Fractional coordinates of atoms  x
            x            Number           u          v          w      x
            x----------------------------------------------------------x
            x  H            1         0.375722   0.964144   0.768073   x 
            x  H            2         0.624278   0.464144   0.231927   x 
            x  H            3         0.853410   0.052227   0.636479   x 
            x  H            4         0.146590   0.552227   0.363521   x 
            x  H            5         0.863502   0.009317   0.398382   x 
            x  H            6         0.136498   0.509317   0.601618   x 
            x  H            7         0.503692   0.079336   0.682098   x 
            x  H            8         0.496308   0.579336   0.317902   x 
            x  H            9         0.345028   0.166690   0.557455   x 
            x  H           10         0.654972   0.666690   0.442545   x 
            x  H           11         0.489546   0.145632   0.929307   x 
            x  H           12         0.510454   0.645632   0.070693   x 
            x  H           13         1.035757   0.178661   0.887728   x 
            x  H           14        -0.035757   0.678661   0.112272   x 
            x  H           15         0.620244   0.036349   0.993344   x 
            x  H           16         0.379756   0.536349   0.006656   x 
            x  H           17         0.609760   0.102948   0.249514   x 
            x  H           18         0.390240   0.602948   0.750486   x 
            x  H           19         0.228987   0.086694   0.218230   x 
            x  H           20         0.771013   0.586694   0.781770   x 
            x  H           21         0.362482   0.008633   0.379289   x 
            x  H           22         0.637518   0.508633   0.620711   x 
            x  H           23         0.946395   0.700694   0.806593   x 
            x  H           24         0.053605   0.200694   0.193407   x 
            x  H           25         0.459097   0.734503   0.680956   x 
            x  H           26         0.540903   0.234503   0.319044   x 
            x  H           27         0.287638   0.775526   0.970893   x 
            x  H           28         0.712362   0.275526   0.029107   x 
            x  H           29         0.860760   0.783058   0.170602   x 
            x  H           30         0.139240   0.283058   0.829398   x 
            x  H           31         0.776656   0.864792   0.953665   x 
            x  H           32         0.223344   0.364792   0.046335   x 
            x  H           33         0.206561   0.930197   0.069075   x 
            x  H           34         0.793439   0.430197   0.930925   x 
            x  H           35         0.262327   0.871435   0.762368   x 
            x  H           36         0.737673   0.371435   0.237632   x 
            x  H           37         0.604504   0.842787   0.609575   x 
            x  H           38         0.395496   0.342787   0.390425   x 
            x  H           39         0.834762   0.904548   0.406837   x 
            x  H           40         0.165238   0.404548   0.593163   x 
            x  H           41         0.097958   0.844502   0.423932   x 
            x  H           42         0.902042   0.344502   0.576068   x 
            x  H           43         0.509307   0.846907   0.221408   x 
            x  H           44         0.490693   0.346907   0.778592   x 
            x  H           45         0.700703   0.232785   0.634966   x 
            x  H           46         0.299297   0.732785   0.365034   x 
            x  H           47         0.845163   0.179197   0.554045   x 
            x  H           48         0.154837   0.679197   0.445955   x 
            x  C            1         0.163007   0.984331   0.774176   x 
            x  C            2         0.836993   0.484331   0.225824   x 
            x  C            3         0.077147   0.037286   0.639259   x 
            x  C            4         0.922853   0.537286   0.360741   x 
            x  C            5         0.283501   0.092361   0.692604   x 
            x  C            6         0.716499   0.592361   0.307396   x 
            x  C            7         0.314620   0.110536   0.888893   x 
            x  C            8         0.685380   0.610536   0.111107   x 
            x  C            9         0.408149   0.053600   0.008436   x 
            x  C           10         0.591851   0.553600   0.991564   x 
            x  C           11         0.436339   0.067888   0.203356   x 
            x  C           12         0.563661   0.567888   0.796644   x 
            x  C           13         0.870790   0.749018   0.802603   x 
            x  C           14         0.129210   0.249018   0.197397   x 
            x  C           15         0.057453   0.784287   0.967234   x 
            x  C           16         0.942547   0.284287   0.032766   x 
            x  C           17         0.001687   0.854059   0.946669   x 
            x  C           18         0.998313   0.354059   0.053331   x 
            x  C           19         0.030450   0.875866   0.763938   x 
            x  C           20         0.969550   0.375866   0.236062   x 
            x  C           21         0.837424   0.837134   0.611258   x 
            x  C           22         0.162576   0.337134   0.388742   x 
            x  C           23         0.872377   0.854816   0.428692   x 
            x  C           24         0.127623   0.354816   0.571308   x 
            x  O            1         0.938511   0.939719   0.731873   x 
            x  O            2         0.061489   0.439719   0.268127   x 
            x  O            3         0.076299   0.014117   0.466274   x 
            x  O            4         0.923701   0.514117   0.533726   x 
            x  O            5         0.172654   0.142352   0.571443   x 
            x  O            6         0.827346   0.642352   0.428557   x 
            x  O            7         0.042326   0.133520   0.910451   x 
            x  O            8         0.957674   0.633520   0.089549   x 
            x  O            9         0.511177   0.012461   0.310179   x 
            x  O           10         0.488823   0.512461   0.689821   x 
            x  O           11         0.187567   0.005067   0.954199   x 
            x  O           12         0.812433   0.505067   0.045801   x 
            x  O           13         0.571223   0.752497   0.797980   x 
            x  O           14         0.428777   0.252497   0.202020   x 
            x  O           15         0.016184   0.759565   0.131198   x 
            x  O           16         0.983816   0.259565   0.868802   x 
            x  O           17         0.210561   0.885056   0.092258   x 
            x  O           18         0.789439   0.385056   0.907742   x 
            x  O           19         0.673232   0.819861   0.288089   x 
            x  O           20         0.326768   0.319861   0.711911   x 
            x  O           21         0.922798   0.773339   0.642052   x 
            x  O           22         0.077202   0.273339   0.357948   x 
            x  O           23         0.655364   0.201913   0.538375   x 
            x  O           24         0.344636   0.701913   0.461625   x 
            xxxxxxxxxxxxxxxxxxxxxxxxxxxxxxxxxxxxxxxxxxxxxxxxxxxxxxxxxxxx


                         No user defined ionic velocities

                           -------------------------------
                                   Details of Species
                           -------------------------------

                               Mass of species in AMU
                                    H    1.0079400
                                    C   12.0107000
                                    O   15.9994000

                          Electric Quadrupole Moment (Barn)
                                    H    0.0028600 Isotope  2
                                    C    0.0332700 Isotope 11
                                    O   -0.0255800 Isotope 17

                          Files used for pseudopotentials:
                                    H H_NCP17_PBE_OTF.usp
                                    C C_NCP17_PBE_OTF.usp
                                    O O_NCP17_PBE_OTF.usp

                           -------------------------------
                              k-Points For BZ Sampling
                           -------------------------------
                       MP grid size for SCF calculation is  3  1  2
                            with an offset of   0.000  0.000  0.000
                       Number of kpoints used =             3

                           -------------------------------
                               Symmetry and Constraints
                           -------------------------------

                      Maximum deviation from symmetry = 0.215830E-13     ANG

                      Number of symmetry operations   =           2
                      Number of ionic constraints     =           3
                      Point group of crystal =     4: C2, 2, 2
                      Space group of crystal =     4: P2_1, P 2yb

             Set iprint > 1 for details on symmetry rotations/translations

                         Centre of mass is constrained
             Set iprint > 1 for details of linear ionic constraints

                         Number of cell constraints= 2
                         Cell constraints are:  1 2 3 0 5 0

                         External pressure/stress (GPa)
                          0.00000   0.00000   0.00000
                                    0.00000   0.00000
                                              0.00000
                    k-Points For SCF Sampling:           3
             +++++++++++++++++++++++++++++++++++++++++++++++++++++++
             +  Number       Fractional coordinates        Weight  +
             +-----------------------------------------------------+
             +     1   0.000000   0.000000   0.250000   0.3333333  +
             +     2   0.333333   0.000000  -0.250000   0.3333333  +
             +     3   0.333333   0.000000   0.250000   0.3333333  +
             +++++++++++++++++++++++++++++++++++++++++++++++++++++++

                    k-Points For Phonons:           1
             +++++++++++++++++++++++++++++++++++++++++++++++++++++++
             +  Number       Fractional coordinates        Weight  +
             +-----------------------------------------------------+
             +     1   0.000000   0.000000   0.000000   1.0000000  +
             +++++++++++++++++++++++++++++++++++++++++++++++++++++++

                    k-Points For Fine Phonons:           1
             +++++++++++++++++++++++++++++++++++++++++++++++++++++++
             +  Number       Fractional coordinates        Weight  +
             +-----------------------------------------------------+
             +     1   0.000000   0.000000   0.000000   1.0000000  +
             +++++++++++++++++++++++++++++++++++++++++++++++++++++++

  
+---------------- MEMORY AND SCRATCH DISK ESTIMATES PER PROCESS --------------+
|                                                     Memory          Disk    |
| Baseline code, static data and system overhead      474.0 MB         0.0 MB |
| BLAS internal memory storage                          0.0 MB         0.0 MB |
| Model and support data                              673.5 MB         0.0 MB |
| Electronic energy minimisation requirements        1842.3 MB         0.0 MB |
| Force calculation requirements                       93.9 MB         0.0 MB |
| Stress calculation requirements                     103.8 MB         0.0 MB |
|                                               ----------------------------- |
| Approx. total storage required per process         2989.9 MB         0.0 MB |
|                                                                             |
| Requirements will fluctuate during execution and may exceed these estimates |
+-----------------------------------------------------------------------------+

            Bond                    Length (A)
==================================================
         H 46 -- O 24                0.98204
         H 45 -- O 23                0.98204
         H 13 -- O 7                 0.98985
         H 14 -- O 8                 0.98985
         H 34 -- O 18                0.99077
         H 33 -- O 17                0.99077
         H 44 -- O 20                0.99452
         H 43 -- O 19                0.99452
         H 25 -- O 13                0.99626
         H 26 -- O 14                0.99626
         H 22 -- O 10                0.99754
         H 21 -- O 9                 0.99754
         H 48 -- O 24                1.00002
         H 47 -- O 23                1.00002
         H 9  -- O 5                 1.00008
         H 10 -- O 6                 1.00008
         H 5  -- O 3                 1.00432
         H 6  -- O 4                 1.00432
         H 29 -- O 15                1.00683
         H 30 -- O 16                1.00683
         H 40 -- C 24                1.09442
         H 39 -- C 23                1.09442
         H 20 -- C 12                1.09565
         H 19 -- C 11                1.09565
         H 27 -- C 15                1.09671
         H 28 -- C 16                1.09671
         H 41 -- C 23                1.09949
         H 42 -- C 24                1.09949
         H 3  -- C 3                 1.09993
         H 4  -- C 4                 1.09993
         H 23 -- C 13                1.10094
         H 24 -- C 14                1.10094
         H 17 -- C 11                1.10100
         H 18 -- C 12                1.10100
         H 11 -- C 7                 1.10182
         H 12 -- C 8                 1.10182
         H 8  -- C 6                 1.10226
         H 7  -- C 5                 1.10226
         H 35 -- C 19                1.10327
         H 36 -- C 20                1.10327
         H 37 -- C 21                1.10389
         H 38 -- C 22                1.10389
         H 32 -- C 18                1.10413
         H 31 -- C 17                1.10413
         H 15 -- C 9                 1.10520
         H 16 -- C 10                1.10520
         H 2  -- C 2                 1.10854
         H 1  -- C 1                 1.10854
         C 2  -- O 2                 1.40377
         C 1  -- O 1                 1.40377
         C 14 -- O 14                1.40814
         C 13 -- O 13                1.40814
         C 7  -- O 7                 1.43116
         C 8  -- O 8                 1.43116
         C 4  -- O 4                 1.43177
         C 3  -- O 3                 1.43177
         C 6  -- O 6                 1.43326
         C 5  -- O 5                 1.43326
         C 13 -- O 21                1.43427
         C 14 -- O 22                1.43427
         C 22 -- O 22                1.43729
         C 21 -- O 21                1.43729
         C 1  -- O 11                1.44123
         C 2  -- O 12                1.44123
         C 16 -- O 16                1.44180
         C 15 -- O 15                1.44180
         C 23 -- O 19                1.44316
         C 24 -- O 20                1.44316
         C 12 -- O 10                1.44392
         C 11 -- O 9                 1.44392
         C 18 -- O 18                1.44465
         C 17 -- O 17                1.44465
         C 20 -- O 2                 1.44694
         C 19 -- O 1                 1.44694
         C 9  -- O 11                1.45663
         C 10 -- O 12                1.45663
         C 10 -- C 12                1.51358
         C 9  -- C 11                1.51358
         C 21 -- C 23                1.51963
         C 22 -- C 24                1.51963
         C 3  -- C 5                 1.52179
         C 4  -- C 6                 1.52179
         C 2  -- C 4                 1.52847
         C 1  -- C 3                 1.52847
         C 19 -- C 21                1.53060
         C 20 -- C 22                1.53060
         C 16 -- C 18                1.53074
         C 15 -- C 17                1.53074
         C 8  -- C 10                1.53086
         C 7  -- C 9                 1.53086
         C 17 -- C 19                1.53539
         C 18 -- C 20                1.53539
         C 13 -- C 15                1.54022
         C 14 -- C 16                1.54022
         C 6  -- C 8                 1.54064
         C 5  -- C 7                 1.54064
         H 46 -- H 48                1.56063
         H 45 -- H 47                1.56063
         H 5  -- O 9                 1.61845
         H 6  -- O 10                1.61845
         H 30 -- O 20                1.64079
         H 29 -- O 19                1.64079
         H 21 -- O 3                 1.67323
         H 22 -- O 4                 1.67323
         H 10 -- O 24                1.69424
         H 9  -- O 23                1.69424
         H 43 -- O 17                1.70288
         H 44 -- O 18                1.70288
         H 47 -- O 5                 1.71222
         H 48 -- O 6                 1.71222
         H 14 -- O 15                1.76520
         H 13 -- O 16                1.76520
         H 39 -- H 41                1.77652
         H 40 -- H 42                1.77652
         H 18 -- H 20                1.78321
         H 17 -- H 19                1.78321
         H 25 -- O 24                1.78336
         H 26 -- O 23                1.78336
         H 34 -- O 12                1.83694
         H 33 -- O 11                1.83694
         H 4  -- H 8                 1.87625
         H 3  -- H 7                 1.87625
         H 26 -- C 14                1.94062
         H 25 -- C 13                1.94062
         H 6  -- C 4                 1.96038
         H 5  -- C 3                 1.96038
         H 22 -- C 12                1.97130
         H 21 -- C 11                1.97130
         H 13 -- C 7                 1.97366
         H 14 -- C 8                 1.97366
         H 9  -- C 5                 1.98238
         H 10 -- C 6                 1.98238
         H 24 -- O 22                2.00682
         H 23 -- O 21                2.00682
         H 34 -- C 18                2.00988
         H 33 -- C 17                2.00988
         H 44 -- C 24                2.01136
         H 43 -- C 23                2.01136
         H 45 -- O 16                2.02119
         H 46 -- O 15                2.02119
         H 30 -- C 16                2.03988
         H 29 -- C 15                2.03988
         H 28 -- O 16                2.04650
         H 27 -- O 15                2.04650
         H 42 -- O 20                2.06428
         H 41 -- O 19                2.06428
         H 1  -- H 35                2.07032
         H 2  -- H 36                2.07032
         H 3  -- O 3                 2.07259
         H 4  -- O 4                 2.07259
         H 8  -- O 6                 2.07360
         H 7  -- O 5                 2.07360
         H 1  -- O 1                 2.07531
         H 2  -- O 2                 2.07531
         H 3  -- H 5                 2.07953
         H 4  -- H 6                 2.07953
         H 23 -- O 13                2.08192
         H 24 -- O 14                2.08192
         H 20 -- O 10                2.08232
         H 19 -- O 9                 2.08232
         H 32 -- O 18                2.08372
         H 31 -- O 17                2.08372
         H 2  -- O 12                2.08891
         H 1  -- O 11                2.08891
         H 38 -- O 22                2.08994
         H 37 -- O 21                2.08994
         H 20 -- H 22                2.09060
         H 19 -- H 21                2.09060
         H 35 -- O 1                 2.09142
         H 36 -- O 2                 2.09142
         H 17 -- O 9                 2.09268
         H 18 -- O 10                2.09268
         H 11 -- O 7                 2.09428
         H 12 -- O 8                 2.09428
         H 15 -- O 11                2.09477
         H 16 -- O 12                2.09477
         H 40 -- O 20                2.09571
         H 39 -- O 19                2.09571
         H 27 -- C 13                2.12167
         H 28 -- C 14                2.12167
         H 18 -- C 10                2.13685
         H 17 -- C 9                 2.13685
         H 3  -- C 1                 2.13890
         H 4  -- C 2                 2.13890
         H 4  -- C 6                 2.14142
         H 3  -- C 5                 2.14142
         H 28 -- C 18                2.14459
         H 27 -- C 17                2.14459
         H 12 -- C 10                2.14629
         H 11 -- C 9                 2.14629
         H 8  -- C 8                 2.14834
         H 7  -- C 7                 2.14834
         H 37 -- C 23                2.14849
         H 38 -- C 24                2.14849
         H 40 -- C 22                2.15097
         H 39 -- C 21                2.15097
         H 7  -- C 3                 2.15179
         H 8  -- C 4                 2.15179
         H 32 -- C 20                2.15245
         H 31 -- C 19                2.15245
         H 20 -- C 10                2.15304
         H 19 -- C 9                 2.15304
         H 42 -- C 22                2.15342
         H 41 -- C 21                2.15342
         H 16 -- C 12                2.15720
         H 15 -- C 11                2.15720
         H 7  -- H 9                 2.15871
         H 8  -- H 10                2.15871
         H 36 -- C 22                2.15942
         H 35 -- C 21                2.15942
         H 11 -- C 5                 2.15986
         H 12 -- C 6                 2.15986
         H 16 -- C 8                 2.16056
         H 15 -- C 7                 2.16056
         H 10 -- H 46                2.16097
         H 9  -- H 45                2.16097
         H 35 -- C 17                2.16120
         H 36 -- C 18                2.16120
         H 38 -- C 20                2.16178
         H 37 -- C 19                2.16178
         H 2  -- C 4                 2.17068
         H 1  -- C 3                 2.17068
         H 32 -- C 16                2.17228
         H 31 -- C 15                2.17228
         H 23 -- C 15                2.17508
         H 24 -- C 16                2.17508
         H 39 -- H 43                2.18437
         H 40 -- H 44                2.18437
         H 28 -- O 14                2.19801
         H 27 -- O 13                2.19801
         H 11 -- H 13                2.19804
         H 12 -- H 14                2.19804
         H 6  -- H 40                2.26913
         H 5  -- H 39                2.26913
         H 30 -- H 44                2.27489
         H 29 -- H 43                2.27489
         O 1  -- O 11                2.28912
         O 2  -- O 12                2.28912
         H 25 -- H 48                2.31976
         H 26 -- H 47                2.31976
         H 6  -- H 22                2.33123
         H 5  -- H 21                2.33123
         H 35 -- H 37                2.33582
         H 36 -- H 38                2.33582
         O 13 -- O 21                2.35177
         O 14 -- O 22                2.35177
         H 24 -- H 26                2.35665
         H 23 -- H 25                2.35665
         H 25 -- H 46                2.35947
         H 26 -- H 45                2.35947
         H 9  -- H 47                2.37036
         H 10 -- H 48                2.37036
         C 4  -- O 2                 2.37609
         C 3  -- O 1                 2.37609
         H 13 -- H 30                2.37709
         H 14 -- H 29                2.37709
         H 30 -- H 42                2.38195
         H 29 -- H 41                2.38195
         C 23 -- O 21                2.38318
         C 24 -- O 22                2.38318
         H 23 -- H 27                2.38960
         H 24 -- H 28                2.38960
         C 11 -- O 11                2.39056
         C 12 -- O 12                2.39056
         H 1  -- H 15                2.39069
         H 2  -- H 16                2.39069
         C 14 -- C 22                2.39256
         C 13 -- C 21                2.39256
         C 2  -- C 10                2.39373
         C 1  -- C 9                 2.39373
         H 30 -- H 32                2.39632
         H 29 -- H 31                2.39632
         H 14 -- H 23                2.39836
         H 13 -- H 24                2.39836
         H 33 -- H 43                2.39846
         H 34 -- H 44                2.39846
         C 2  -- O 4                 2.39893
         C 1  -- O 3                 2.39893
         C 3  -- O 5                 2.40031
         C 4  -- O 6                 2.40031
         C 21 -- O 1                 2.40188
         C 22 -- O 2                 2.40188
         C 20 -- O 22                2.40706
         C 19 -- O 21                2.40706
         H 8  -- H 12                2.40968
         H 7  -- H 11                2.40968
         C 16 -- O 18                2.41191
         C 15 -- O 17                2.41191
         C 15 -- O 13                2.41232
         C 16 -- O 14                2.41232
         C 9  -- O 7                 2.41351
         C 10 -- O 8                 2.41351
         C 2  -- C 20                2.42084
         C 1  -- C 19                2.42084
         C 10 -- O 10                2.42593
         C 9  -- O 9                 2.42593
         H 38 -- H 42                2.43178
         H 37 -- H 41                2.43178
         H 31 -- H 33                2.43438
         H 32 -- H 34                2.43438
         C 15 -- O 21                2.43900
         C 16 -- O 22                2.43900
         C 6  -- O 4                 2.44059
         C 5  -- O 3                 2.44059
         H 26 -- O 22                2.44115
         H 25 -- O 21                2.44115
         C 22 -- O 20                2.44209
         C 21 -- O 19                2.44209
         C 7  -- O 11                2.44425
         C 8  -- O 12                2.44425
         C 6  -- O 8                 2.45060
         C 5  -- O 7                 2.45060
         H 14 -- H 46                2.45292
         H 13 -- H 45                2.45292
         C 17 -- O 1                 2.45326
         C 18 -- O 2                 2.45326
         C 4  -- O 12                2.45582
         C 3  -- O 11                2.45582
         H 11 -- H 15                2.45603
         H 12 -- H 16                2.45603
         H 29 -- H 46                2.45641
         H 30 -- H 45                2.45641
         C 14 -- O 16                2.46292
         C 13 -- O 15                2.46292
         C 20 -- O 18                2.46298
         C 19 -- O 17                2.46298
         H 16 -- H 18                2.46552
         H 15 -- H 17                2.46552
         C 8  -- O 6                 2.46682
         C 7  -- O 5                 2.46682
         H 38 -- O 14                2.46834
         H 37 -- O 13                2.46834
         H 6  -- H 18                2.47031
         H 5  -- H 17                2.47031
         H 27 -- H 43                2.47725
         H 28 -- H 44                2.47725
         H 32 -- H 36                2.48010
         H 31 -- H 35                2.48010
         C 18 -- O 16                2.48355
         C 17 -- O 15                2.48355
         H 35 -- C 1                 2.48978
         H 36 -- C 2                 2.48978
         H 13 -- H 47                2.49755
         H 14 -- H 48                2.49755
         C 5  -- C 9                 2.50277
         C 6  -- C 10                2.50277
         H 1  -- C 19                2.50403
         H 2  -- C 20                2.50403
         H 7  -- H 15                2.50408
         H 8  -- H 16                2.50408
         H 5  -- C 11                2.50777
         H 6  -- C 12                2.50777
         C 15 -- C 19                2.51161
         C 16 -- C 20                2.51161
         C 3  -- C 7                 2.51452
         C 4  -- C 8                 2.51452
         H 20 -- O 8                 2.52001
         H 19 -- O 7                 2.52001
         H 30 -- C 24                2.52140
         H 29 -- C 23                2.52140
         C 8  -- C 12                2.52296
         C 7  -- C 11                2.52296
         C 2  -- C 6                 2.52348
         C 1  -- C 5                 2.52348
         H 38 -- H 40                2.52570
         H 37 -- H 39                2.52570
         H 33 -- C 1                 2.52774
         H 34 -- C 2                 2.52774
         C 14 -- C 18                2.53004
         C 13 -- C 17                2.53004
         C 17 -- C 21                2.53050
         C 18 -- C 22                2.53050
         H 30 -- C 18                2.53997
         H 29 -- C 17                2.53997
         H 3  -- O 1                 2.54014
         H 4  -- O 2                 2.54014
         H 25 -- H 37                2.54141
         H 26 -- H 38                2.54141
         C 20 -- C 24                2.54316
         C 19 -- C 23                2.54316
         H 40 -- O 2                 2.54997
         H 39 -- O 1                 2.54997
         H 12 -- H 18                2.56396
         H 11 -- H 17                2.56396
         H 34 -- C 20                2.56834
         H 33 -- C 19                2.56834
         H 34 -- O 2                 2.58381
         H 33 -- O 1                 2.58381
         H 42 -- O 22                2.58510
         H 41 -- O 21                2.58510
         H 20 -- H 23                2.58840
         H 19 -- H 24                2.58840
         H 36 -- H 42                2.59251
         H 35 -- H 41                2.59251
         H 3  -- O 5                 2.59580
         H 4  -- O 6                 2.59580
         H 28 -- O 18                2.60874
         H 27 -- O 17                2.60874
         H 15 -- C 1                 2.60894
         H 16 -- C 2                 2.60894
         H 27 -- H 35                2.61132
         H 28 -- H 36                2.61132
         O 3  -- O 9                 2.61230
         O 4  -- O 10                2.61230
         H 31 -- H 37                2.61283
         H 32 -- H 38                2.61283
         H 40 -- O 4                 2.61302
         H 39 -- O 3                 2.61302
         H 1  -- O 3                 2.61424
         H 2  -- O 4                 2.61424
         H 23 -- O 8                 2.62042
         H 24 -- O 7                 2.62042
         O 16 -- O 20                2.62458
         O 15 -- O 19                2.62458
         H 31 -- O 1                 2.62489
         H 32 -- O 2                 2.62489
         H 37 -- C 13                2.62588
         H 38 -- C 14                2.62588
         H 13 -- C 16                2.63414
         H 14 -- C 15                2.63414
         H 38 -- O 2                 2.63693
         H 37 -- O 1                 2.63693
         H 8  -- O 4                 2.64803
         H 7  -- O 3                 2.64803
         H 37 -- O 19                2.64971
         H 38 -- O 20                2.64971
         H 36 -- O 18                2.65432
         H 35 -- O 17                2.65432
         H 28 -- O 22                2.65946
         H 27 -- O 21                2.65946
         H 1  -- C 9                 2.66088
         H 2  -- C 10                2.66088
         H 36 -- O 22                2.66709
         H 35 -- O 21                2.66709
         H 19 -- O 11                2.66947
         H 20 -- O 12                2.66947
         H 42 -- H 45                2.67880
         H 41 -- H 46                2.67880
         H 17 -- H 21                2.67881
         H 18 -- H 22                2.67881
         H 2  -- H 8                 2.68765
         H 1  -- H 7                 2.68765
         O 5  -- O 23                2.69169
         O 6  -- O 24                2.69169
         O 18 -- O 20                2.69237
         O 17 -- O 19                2.69237
         H 34 -- O 10                2.69301
         H 33 -- O 9                 2.69301
         H 16 -- O 10                2.69707
         H 15 -- O 9                 2.69707
         H 4  -- O 8                 2.71286
         H 3  -- O 7                 2.71286
         H 10 -- H 25                2.71406
         H 9  -- H 26                2.71406
         H 16 -- C 6                 2.72121
         H 15 -- C 5                 2.72121
         H 8  -- H 22                2.72763
         H 7  -- H 21                2.72763
         H 19 -- O 3                 2.72885
         H 20 -- O 4                 2.72885
         H 28 -- H 30                2.73112
         H 27 -- H 29                2.73112
         H 3  -- O 11                2.73388
         H 4  -- O 12                2.73388
         H 32 -- O 16                2.73673
         H 31 -- O 15                2.73673
         H 31 -- H 43                2.73940
         H 32 -- H 44                2.73940
         H 26 -- H 28                2.73971
         H 25 -- H 27                2.73971
         H 40 -- C 20                2.74104
         H 39 -- C 19                2.74104
         H 44 -- C 18                2.74164
         H 43 -- C 17                2.74164
         H 3  -- O 9                 2.74195
         H 4  -- O 10                2.74195
         H 20 -- C 8                 2.74408
         H 19 -- C 7                 2.74408
         O 7  -- O 16                2.74671
         O 8  -- O 15                2.74671
         H 8  -- C 10                2.74871
         H 7  -- C 9                 2.74871
         H 45 -- O 20                2.75605
         H 46 -- O 19                2.75605
         H 36 -- C 24                2.75886
         H 35 -- C 23                2.75886
         H 24 -- O 16                2.75983
         H 23 -- O 15                2.75983
         O 13 -- O 24                2.76055
         O 14 -- O 23                2.76055
         H 32 -- O 14                2.76441
         H 31 -- O 13                2.76441
         H 2  -- H 34                2.76751
         H 1  -- H 33                2.76751
         H 18 -- C 8                 2.76815
         H 17 -- C 7                 2.76815
         O 9  -- O 11                2.77089
         O 10 -- O 12                2.77089
         H 12 -- O 6                 2.77099
         H 11 -- O 5                 2.77099
         H 27 -- C 19                2.77178
         H 28 -- C 20                2.77178
         H 33 -- H 35                2.77329
         H 34 -- H 36                2.77329
         H 13 -- C 14                2.77457
         H 14 -- C 13                2.77457
         H 12 -- C 12                2.77498
         H 11 -- C 11                2.77498
         H 39 -- O 9                 2.77568
         H 40 -- O 10                2.77568
         H 4  -- H 22                2.77681
         H 3  -- H 21                2.77681
         H 37 -- C 17                2.78047
         H 38 -- C 18                2.78047
         H 47 -- C 5                 2.78247
         H 48 -- C 6                 2.78247
         H 22 -- C 4                 2.78662
         H 21 -- C 3                 2.78662
         H 41 -- H 43                2.79472
         H 42 -- H 44                2.79472
         O 12 -- O 18                2.79568
         O 11 -- O 17                2.79568
         H 4  -- C 8                 2.79823
         H 3  -- C 7                 2.79823
         H 27 -- O 19                2.79914
         H 28 -- O 20                2.79914
         H 35 -- C 15                2.80245
         H 36 -- C 16                2.80245
         H 3  -- H 47                2.81405
         H 4  -- H 48                2.81405
         H 10 -- H 12                2.81431
         H 9  -- H 11                2.81431
         H 31 -- C 21                2.81431
         H 32 -- C 22                2.81431
         H 13 -- O 5                 2.81618
         H 14 -- O 6                 2.81618
         H 7  -- C 1                 2.81870
         H 8  -- C 2                 2.81870
         H 44 -- C 16                2.82274
         H 43 -- C 15                2.82274
         H 41 -- C 19                2.82600
         H 42 -- C 20                2.82600
         O 1  -- O 3                 2.82708
         O 2  -- O 4                 2.82708
         C 22 -- O 14                2.83290
         C 21 -- O 13                2.83290
         H 2  -- C 6                 2.83957
         H 1  -- C 5                 2.83957
         H 47 -- O 7                 2.84221
         H 48 -- O 8                 2.84221
         H 17 -- H 47                2.84481
         H 18 -- H 48                2.84481
         H 13 -- C 5                 2.84814
         H 14 -- C 6                 2.84814
         H 32 -- C 14                2.84823
         H 31 -- C 13                2.84823
         O 14 -- O 16                2.85438
         O 13 -- O 15                2.85438
         O 7  -- O 11                2.85604
         O 8  -- O 12                2.85604
         H 13 -- O 23                2.85647
         H 14 -- O 24                2.85647
         O 19 -- O 21                2.85814
         O 20 -- O 22                2.85814
         H 41 -- O 15                2.86270
         H 42 -- O 16                2.86270
         O 6  -- O 8                 2.86840
         O 5  -- O 7                 2.86840
         H 10 -- O 21                2.86885
         H 9  -- O 22                2.86885
         H 22 -- H 34                2.86986
         H 21 -- H 33                2.86986
         H 10 -- H 23                2.87802
         H 9  -- H 24                2.87802
         C 17 -- O 21                2.87829
         C 18 -- O 22                2.87829
         C 14 -- C 20                2.87937
         C 13 -- C 19                2.87937
         H 9  -- C 7                 2.88300
         H 10 -- C 8                 2.88300
         C 3  -- C 9                 2.88446
         C 4  -- C 10                2.88446
         C 11 -- O 7                 2.88456
         C 12 -- O 8                 2.88456
         O 3  -- O 5                 2.88824
         O 4  -- O 6                 2.88824
         O 16 -- O 23                2.88987
         O 15 -- O 24                2.88987
         C 1  -- C 7                 2.89605
         C 2  -- C 8                 2.89605
         C 5  -- O 11                2.89623
         C 6  -- O 12                2.89623
         H 41 -- O 17                2.90321
         H 42 -- O 18                2.90321
         O 15 -- O 17                2.90429
         O 16 -- O 18                2.90429
         C 15 -- C 21                2.90519
         C 16 -- C 22                2.90519
         H 33 -- C 9                 2.91204
         H 34 -- C 10                2.91204
         H 30 -- O 14                2.91533
         H 29 -- O 13                2.91533
         H 29 -- O 17                2.91679
         H 30 -- O 18                2.91679
         H 8  -- O 8                 2.91767
         H 7  -- O 7                 2.91767
         H 48 -- O 15                2.92094
         H 47 -- O 16                2.92094
         H 6  -- C 2                 2.92145
         H 5  -- C 1                 2.92145
         H 38 -- H 44                2.92270
         H 37 -- H 43                2.92270
         H 17 -- H 26                2.92716
         H 18 -- H 25                2.92716
         H 48 -- O 21                2.92740
         H 47 -- O 22                2.92740
         H 5  -- O 1                 2.92936
         H 6  -- O 2                 2.92936
         H 44 -- O 16                2.92980
         H 43 -- O 15                2.92980
         H 36 -- O 14                2.93014
         H 35 -- O 13                2.93014
         C 24 -- O 2                 2.93155
         C 23 -- O 1                 2.93155
         H 32 -- O 20                2.93491
         H 31 -- O 19                2.93491
         H 1  -- H 31                2.96168
         H 2  -- H 32                2.96168
         H 29 -- C 13                2.96216
         H 30 -- C 14                2.96216
         H 13 -- H 28                2.97278
         H 14 -- H 27                2.97278
         O 1  -- O 17                2.98264
         O 2  -- O 18                2.98264
         H 44 -- H 45                2.98516
         H 43 -- H 46                2.98516
         H 25 -- C 21                2.98897
         H 26 -- C 22                2.98897
         C 3  -- O 7                 2.99468
         C 4  -- O 8                 2.99468
         C 18 -- O 14                2.99889
         C 17 -- O 13                2.99889
==================================================

  
             +-------------------------------------------------+
             |                                                 |
             |       DRYRUN finished ...                       |
             |       No problems found with input files.       |
             |                                                 |
             +-------------------------------------------------+
  
Initialisation time =      2.79 s
Calculation time    =      0.04 s
Finalisation time   =      0.00 s
Total time          =      2.83 s
Peak Memory Use     = 659200 kB
 +-------------------------------------------------+
 |                                                 |
 |      CCC   AA    SSS  TTTTT  EEEEE  PPPP        |
 |     C     A  A  S       T    E      P   P       |
 |     C     AAAA   SS     T    EEE    PPPP        |
 |     C     A  A     S    T    E      P           |
 |      CCC  A  A  SSS     T    EEEEE  P           |
 |                                                 |
 +-------------------------------------------------+
 |                                                 |
 | Welcome to Academic Release CASTEP version 17.21|          
 | Ab Initio Total Energy Program                  |
 |                                                 |
 | Authors:                                        |
 | M. Segall, M. Probert, C. Pickard, P. Hasnip,   |
 | S. Clark, K. Refson, J. R. Yates, M. Payne      |
 |                                                 |
 | Contributors:                                   |
 | P. Lindan, P. Haynes, J. White, V. Milman,      |
 | N. Govind, M. Gibson, P. Tulip, V. Cocula,      |
 | B. Montanari, D. Quigley, M. Glover,            |
 | L. Bernasconi, A. Perlov, M. Plummer,           |
 | E. McNellis, J. Meyer, J. Gale, D. Jochym       |
 | J. Aarons, B. Walker, R. Gillen, D. Jones       |
 | T. Green, I. J. Bush, C. J. Armstrong,          |
 | E. J. Higgins, E. L. Brown, M. S. McFly,        |
 | J. Wilkins, B-C. Shih, P. J. P. Byrne           |
 |                                                 |
 | Copyright (c) 2000 - 2017                       |
 |                                                 |
 |     Distributed under the terms of an           |
 |     Agreement between the United Kingdom        |
 |     Car-Parrinello (UKCP) Consortium,           |
 |     Daresbury Laboratory and Accelrys, Inc.     |
 |                                                 |
 | Please cite                                     |
 |                                                 |
 |     "First principles methods using CASTEP"     |
 |                                                 |
 |         Zeitschrift fuer Kristallographie       |
 |           220(5-6) pp. 567-570 (2005)           |
 |                                                 |
 | S. J. Clark, M. D. Segall, C. J. Pickard,       |
 | P. J. Hasnip, M. J. Probert, K. Refson,         |
 | M. C. Payne                                     |
 |                                                 |
 |       in all publications arising from          |
 |              your use of CASTEP                 |
 |                                                 |
 +-------------------------------------------------+


 Compiled for linux_x86_64_gfortran7.0 on Tue, 21 Nov 2017 10:27:43 +0000
 from code version 056e886bd5a1+ Castep172_branch Mon, 15 May 2017 14:45:35 +0100
 Compiler: GNU Fortran 7.2.0; Optimisation: fast
 MATHLIBS: Intel MKL(2017.0.1) (LAPACK version 3.6.0)
 FFT Lib : fftw3 version fftw-3.3.6-pl1-fma-avx2-avx2_128
 Fundamental constants values: CODATA 2010

 Run started: Fri, 08 Dec 2017 11:13:09 +0000
 +-------------------------------------------------+
 |                                                 |
 |  D D D D    F F F F F  P P P P     T T T T T    |
 |  D       D  F          P       P       T        |
 |  D       D  F F F F    P P P P         T        |
 |  D       D  F          P               T        |
 |  D D D D    F          P               T        |
 |                                                 |
 +-------------------------------------------------+
 |                                                 |
 | Welcome to Castep Linear Response (DFPT)        |
 |                                                 |
 | Copyright (c) 2006 - 2017                       |
 |                                                 |
 | Please cite the following publications in all   |
 | work arising from your use of CASTEP LR.        |
 |                                                 |
 | K. Refson, S. J. Clark and P. R. Tulip          |
 | Variational density functional perturbation     |
 | theory for dielectrics and lattice dynamics     |
 | Phys. Rev. B 73(15), 155114 (2006)              |
 +-------------------------------------------------+


 Pseudo atomic calculation performed for H 1s1

 Converged in 43 iterations to a total energy of -12.4815 eV


 Pseudo atomic calculation performed for C 2s2 2p2

 Converged in 70 iterations to a total energy of -152.4348 eV


 Pseudo atomic calculation performed for O 2s2 2p4

 Converged in 141 iterations to a total energy of -429.3371 eV

 Calculation parallelised over 24 processes.
 Data is distributed by G-vector(8-way) and k-point(3-way)

 ************************************ Title ************************************
 

 ***************************** General Parameters ******************************
  
 output verbosity                               : normal  (1)
 write checkpoint data to                       : phonon.check
 type of calculation                            : Phonon followed by E-field
 stress calculation                             : on
 density difference calculation                 : off
 electron localisation func (ELF) calculation   : off
 Hirshfeld analysis                             : off
 unlimited duration calculation
 timing information                             : on
 memory usage estimate                          : on
 write final potential to formatted file        : off
 write final density to formatted file          : off
 write structure in CIF formatted file          : on
 write structure in CELL formatted file         : on
 write BibTeX reference list                    : on
 write OTFG pseudopotential files               : on
 write electrostatic potential file             : on
 write bands file                               : on
 checkpoint writing                             : both castep_bin and check files
  
 output         length unit                     : A
 output           mass unit                     : amu
 output           time unit                     : ps
 output         charge unit                     : e
 output           spin unit                     : hbar/2
 output         energy unit                     : eV
 output          force unit                     : eV/A
 output       velocity unit                     : A/ps
 output       pressure unit                     : GPa
 output     inv_length unit                     : 1/A
 output      frequency unit                     : cm-1
 output force constant unit                     : eV/A**2
 output         volume unit                     : A**3
 output   IR intensity unit                     : (D/A)**2/amu
 output         dipole unit                     : D
 output         efield unit                     : eV/A/e
 output        entropy unit                     : J/mol/K
  
 wavefunctions paging                           : none
 random number generator seed                   : randomised (111310223)
 data distribution                              : optimal for this architecture
 optimization strategy                          : maximize speed(+++)

 *********************** Exchange-Correlation Parameters ***********************
  
 using functional                               : Perdew Burke Ernzerhof
 relativistic treatment                         : Koelling-Harmon
 DFT+D: Semi-empirical dispersion correction    : off

 ************************* Pseudopotential Parameters **************************
  
 pseudopotential representation                 : reciprocal space
 <beta|phi> representation                      : reciprocal space
 spin-orbit coupling                            : off

 **************************** Basis Set Parameters *****************************
  
 plane wave basis set cut-off                   :  1000.0000   eV
 size of standard grid                          :     1.7500
 size of   fine   gmax                          :    28.3515   1/A
 largest prime factor in FFT                    :          5
 finite basis set correction                    : none

 **************************** Electronic Parameters ****************************
  
 number of  electrons                           :  288.0    
 net charge of system                           :  0.000    
 treating system as non-spin-polarized
 number of bands                                :        144

 ********************* Electronic Minimization Parameters **********************
  
 Method: Treating system as non-metallic,
         and number of  SD  steps               :          1
         and number of  CG  steps               :          8
  
 total energy / atom convergence tol.           : 0.5000E-13   eV
 max force / atom convergence tol.              : ignored
 convergence tolerance window                   :          3   cycles
 max. number of SCF cycles                      :        200
 periodic dipole correction                     : NONE

 *********************** Population Analysis Parameters ************************
  
 Population analysis with cutoff                :  3.000       A

 ****************************** Phonon Parameters ******************************
  
 phonon calculation method                      : linear response
 phonon convergence tolerance                   : 0.1000E-04   eV/A**2
 max. number of phonon cycles                   :         50
 max. number of phonon CG steps                 :          0
 convergence tolerance window                   :          2   cycles
 DFPT solver method                             : AllBands (Gonze variational method)
 preconditioning scheme                         : TPA     
 fine phonon calculation method                 : none
 LO/TO splitting term                           : included
 acoustic phonon sum rule                       : correct D(q) in recip-space
 Born effective charges                         : calculated
 Born charge sum rule                           : explicitly enforced
 Raman intensities                              : not calculated
 phonon k-points                                : use reduced set
 phonon DOS                                     : not calculated
 no timed backups

 ***************************** E-Field Parameters ******************************
  
 E-field convergence tolerance                  : 0.1000E-04   A**3
 DFPT solver method                             : AllBands (Gonze variational method)
 ionic contribution to permittivity             : included
 treating system as a crystal, 
 => ignoring 3 lowest modes when calculating ionic  contribution to permittivity
 calculation with frequency spacing             : 0.4556E-05   cm-1
 Q-factor for lineshape broadening              :    50.0000
 max. number of E-field cycles                  :         50
 max. number of E-field CG steps                :          0
 convergence tolerance window                   :          2   cycles
 band convergence tolerance                     : 0.1000E-08   eV

 *******************************************************************************
  

                           -------------------------------
                                      Unit Cell
                           -------------------------------
        Real Lattice(A)                      Reciprocal Lattice(1/A)
   4.7253413   0.0000000  -0.0090722        1.3304024   0.0000000   0.3769735
   0.0000000  21.6002657   0.0000000        0.0000000   0.2908846   0.0000000
  -2.1158389   0.0000000   7.4671487        0.0016164   0.0000000   0.8419017

                       Lattice parameters(A)       Cell Angles
                    a =    4.725350          alpha =   90.000000
                    b =   21.600266          beta  =  105.930239
                    c =    7.761126          gamma =   90.000000

                       Current cell volume =  761.746986       A**3
                                   density =    0.946014   AMU/A**3
                                           =    1.570894     g/cm^3

                           -------------------------------
                                     Cell Contents
                           -------------------------------
                         Total number of ions in cell =   96
                      Total number of species in cell =    3
                        Max number of any one species =   48

            xxxxxxxxxxxxxxxxxxxxxxxxxxxxxxxxxxxxxxxxxxxxxxxxxxxxxxxxxxxx
            x  Element    Atom        Fractional coordinates of atoms  x
            x            Number           u          v          w      x
            x----------------------------------------------------------x
            x  H            1         0.375722   0.964144   0.768073   x 
            x  H            2         0.624278   0.464144   0.231927   x 
            x  H            3         0.853410   0.052227   0.636479   x 
            x  H            4         0.146590   0.552227   0.363521   x 
            x  H            5         0.863502   0.009317   0.398382   x 
            x  H            6         0.136498   0.509317   0.601618   x 
            x  H            7         0.503692   0.079336   0.682098   x 
            x  H            8         0.496308   0.579336   0.317902   x 
            x  H            9         0.345028   0.166690   0.557455   x 
            x  H           10         0.654972   0.666690   0.442545   x 
            x  H           11         0.489546   0.145632   0.929307   x 
            x  H           12         0.510454   0.645632   0.070693   x 
            x  H           13         1.035757   0.178661   0.887728   x 
            x  H           14        -0.035757   0.678661   0.112272   x 
            x  H           15         0.620244   0.036349   0.993344   x 
            x  H           16         0.379756   0.536349   0.006656   x 
            x  H           17         0.609760   0.102948   0.249514   x 
            x  H           18         0.390240   0.602948   0.750486   x 
            x  H           19         0.228987   0.086694   0.218230   x 
            x  H           20         0.771013   0.586694   0.781770   x 
            x  H           21         0.362482   0.008633   0.379289   x 
            x  H           22         0.637518   0.508633   0.620711   x 
            x  H           23         0.946395   0.700694   0.806593   x 
            x  H           24         0.053605   0.200694   0.193407   x 
            x  H           25         0.459097   0.734503   0.680956   x 
            x  H           26         0.540903   0.234503   0.319044   x 
            x  H           27         0.287638   0.775526   0.970893   x 
            x  H           28         0.712362   0.275526   0.029107   x 
            x  H           29         0.860760   0.783058   0.170602   x 
            x  H           30         0.139240   0.283058   0.829398   x 
            x  H           31         0.776656   0.864792   0.953665   x 
            x  H           32         0.223344   0.364792   0.046335   x 
            x  H           33         0.206561   0.930197   0.069075   x 
            x  H           34         0.793439   0.430197   0.930925   x 
            x  H           35         0.262327   0.871435   0.762368   x 
            x  H           36         0.737673   0.371435   0.237632   x 
            x  H           37         0.604504   0.842787   0.609575   x 
            x  H           38         0.395496   0.342787   0.390425   x 
            x  H           39         0.834762   0.904548   0.406837   x 
            x  H           40         0.165238   0.404548   0.593163   x 
            x  H           41         0.097958   0.844502   0.423932   x 
            x  H           42         0.902042   0.344502   0.576068   x 
            x  H           43         0.509307   0.846907   0.221408   x 
            x  H           44         0.490693   0.346907   0.778592   x 
            x  H           45         0.700703   0.232785   0.634966   x 
            x  H           46         0.299297   0.732785   0.365034   x 
            x  H           47         0.845163   0.179197   0.554045   x 
            x  H           48         0.154837   0.679197   0.445955   x 
            x  C            1         0.163007   0.984331   0.774176   x 
            x  C            2         0.836993   0.484331   0.225824   x 
            x  C            3         0.077147   0.037286   0.639259   x 
            x  C            4         0.922853   0.537286   0.360741   x 
            x  C            5         0.283501   0.092361   0.692604   x 
            x  C            6         0.716499   0.592361   0.307396   x 
            x  C            7         0.314620   0.110536   0.888893   x 
            x  C            8         0.685380   0.610536   0.111107   x 
            x  C            9         0.408149   0.053600   0.008436   x 
            x  C           10         0.591851   0.553600   0.991564   x 
            x  C           11         0.436339   0.067888   0.203356   x 
            x  C           12         0.563661   0.567888   0.796644   x 
            x  C           13         0.870790   0.749018   0.802603   x 
            x  C           14         0.129210   0.249018   0.197397   x 
            x  C           15         0.057453   0.784287   0.967234   x 
            x  C           16         0.942547   0.284287   0.032766   x 
            x  C           17         0.001687   0.854059   0.946669   x 
            x  C           18         0.998313   0.354059   0.053331   x 
            x  C           19         0.030450   0.875866   0.763938   x 
            x  C           20         0.969550   0.375866   0.236062   x 
            x  C           21         0.837424   0.837134   0.611258   x 
            x  C           22         0.162576   0.337134   0.388742   x 
            x  C           23         0.872377   0.854816   0.428692   x 
            x  C           24         0.127623   0.354816   0.571308   x 
            x  O            1         0.938511   0.939719   0.731873   x 
            x  O            2         0.061489   0.439719   0.268127   x 
            x  O            3         0.076299   0.014117   0.466274   x 
            x  O            4         0.923701   0.514117   0.533726   x 
            x  O            5         0.172654   0.142352   0.571443   x 
            x  O            6         0.827346   0.642352   0.428557   x 
            x  O            7         0.042326   0.133520   0.910451   x 
            x  O            8         0.957674   0.633520   0.089549   x 
            x  O            9         0.511177   0.012461   0.310179   x 
            x  O           10         0.488823   0.512461   0.689821   x 
            x  O           11         0.187567   0.005067   0.954199   x 
            x  O           12         0.812433   0.505067   0.045801   x 
            x  O           13         0.571223   0.752497   0.797980   x 
            x  O           14         0.428777   0.252497   0.202020   x 
            x  O           15         0.016184   0.759565   0.131198   x 
            x  O           16         0.983816   0.259565   0.868802   x 
            x  O           17         0.210561   0.885056   0.092258   x 
            x  O           18         0.789439   0.385056   0.907742   x 
            x  O           19         0.673232   0.819861   0.288089   x 
            x  O           20         0.326768   0.319861   0.711911   x 
            x  O           21         0.922798   0.773339   0.642052   x 
            x  O           22         0.077202   0.273339   0.357948   x 
            x  O           23         0.655364   0.201913   0.538375   x 
            x  O           24         0.344636   0.701913   0.461625   x 
            xxxxxxxxxxxxxxxxxxxxxxxxxxxxxxxxxxxxxxxxxxxxxxxxxxxxxxxxxxxx


                         No user defined ionic velocities

                           -------------------------------
                                   Details of Species
                           -------------------------------

                               Mass of species in AMU
                                    H    1.0079400
                                    C   12.0107000
                                    O   15.9994000

                          Electric Quadrupole Moment (Barn)
                                    H    0.0028600 Isotope  2
                                    C    0.0332700 Isotope 11
                                    O   -0.0255800 Isotope 17

                          Files used for pseudopotentials:
                                    H H_NCP17_PBE_OTF.usp
                                    C C_NCP17_PBE_OTF.usp
                                    O O_NCP17_PBE_OTF.usp

                           -------------------------------
                              k-Points For BZ Sampling
                           -------------------------------
                       MP grid size for SCF calculation is  3  1  2
                            with an offset of   0.000  0.000  0.000
                       Number of kpoints used =             3

                           -------------------------------
                               Symmetry and Constraints
                           -------------------------------

                      Maximum deviation from symmetry = 0.215830E-13     ANG

                      Number of symmetry operations   =           2
                      Number of ionic constraints     =           3
                      Point group of crystal =     4: C2, 2, 2
                      Space group of crystal =     4: P2_1, P 2yb

             Set iprint > 1 for details on symmetry rotations/translations

                         Centre of mass is constrained
             Set iprint > 1 for details of linear ionic constraints

                         Number of cell constraints= 2
                         Cell constraints are:  1 2 3 0 5 0

                         External pressure/stress (GPa)
                          0.00000   0.00000   0.00000
                                    0.00000   0.00000
                                              0.00000
  
+---------------- MEMORY AND SCRATCH DISK ESTIMATES PER PROCESS --------------+
|                                                     Memory          Disk    |
| Baseline code, static data and system overhead      598.0 MB         0.0 MB |
| BLAS internal memory storage                          0.0 MB         0.0 MB |
| Model and support data                              146.7 MB         0.0 MB |
| Electronic energy minimisation requirements         106.3 MB         0.0 MB |
| Force calculation requirements                       15.7 MB         0.0 MB |
| Stress calculation requirements                      17.0 MB         0.0 MB |
|                                               ----------------------------- |
| Approx. total storage required per process          851.1 MB         0.0 MB |
|                                                                             |
| Requirements will fluctuate during execution and may exceed these estimates |
+-----------------------------------------------------------------------------+
Calculating total energy with cut-off of 1000.000 eV.
------------------------------------------------------------------------ <-- SCF
SCF loop      Energy                           Energy gain       Timer   <-- SCF
                                               per atom          (sec)   <-- SCF
------------------------------------------------------------------------ <-- SCF
Initial   6.18042827E+003                                         10.71  <-- SCF
      1  -1.48781733E+004                    2.19360433E+002      37.31  <-- SCF
      2  -1.51108610E+004                    2.42383051E+000      62.59  <-- SCF
      3  -1.51161963E+004                    5.55762767E-002      87.17  <-- SCF
      4  -1.51162068E+004                    1.09261319E-004     111.80  <-- SCF
      5  -1.51162068E+004                    1.48566103E-008     138.35  <-- SCF
      6  -1.51162068E+004                    3.64139713E-012     172.77  <-- SCF
      7  -1.51162068E+004                    1.61123767E-013     212.35  <-- SCF
      8  -1.51162068E+004                    3.22247534E-014     251.96  <-- SCF
      9  -1.51162068E+004                    1.28899013E-013     292.75  <-- SCF
     10  -1.51162068E+004                    6.44495067E-014     331.36  <-- SCF
     11  -1.51162068E+004                    6.44495067E-014     375.67  <-- SCF
     12  -1.51162068E+004                    0.00000000E+000     429.81  <-- SCF
     13  -1.51162068E+004                    0.00000000E+000     480.98  <-- SCF
------------------------------------------------------------------------ <-- SCF
 
Final energy =  -15116.20679342     eV
(energy not corrected for finite basis set)
 

Writing analysis data to phonon.castep_bin

Writing model to phonon.check

 Efield perturbation    1:  X                                           505.46s
  +---------------- MEMORY AND SCRATCH DISK ESTIMATES PER PROCESS --------------+
  |                                                     Memory          Disk    |
  | Baseline code, static data and system overhead      598.0 MB         0.0 MB |
  | BLAS internal memory storage                          0.0 MB         0.0 MB |
  | Model and support data                              149.3 MB         0.0 MB |
  | DFPT E-field response requirements                  147.9 MB         0.0 MB |
  |                                               ----------------------------- |
  | Approx. total storage required per process          895.2 MB         0.0 MB |
  |                                                                             |
  | Requirements will fluctuate during execution and may exceed these estimates |
[...]
              C 5  -- C 9                   -0.17        2.50277
              H 1  -- C 19                  -0.09        2.50403
              H 2  -- C 20                  -0.09        2.50403
              H 8  -- H 16                  -0.01        2.50408
              H 7  -- H 15                  -0.01        2.50408
              H 5  -- C 11                  -0.06        2.50777
              H 6  -- C 12                  -0.06        2.50777
              C 15 -- C 19                  -0.13        2.51161
              C 16 -- C 20                  -0.13        2.51161
              C 3  -- C 7                   -0.16        2.51452
              C 4  -- C 8                   -0.16        2.51452
              H 20 -- O 8                    0.00        2.52001
              H 19 -- O 7                    0.00        2.52001
              H 30 -- C 24                  -0.05        2.52140
              H 29 -- C 23                  -0.05        2.52140
              C 8  -- C 12                  -0.15        2.52296
              C 7  -- C 11                  -0.15        2.52296
              C 2  -- C 6                   -0.16        2.52348
              C 1  -- C 5                   -0.16        2.52348
              H 38 -- H 40                  -0.02        2.52570
              H 37 -- H 39                  -0.02        2.52570
              H 33 -- C 1                   -0.05        2.52774
              H 34 -- C 2                   -0.05        2.52774
              C 14 -- C 18                  -0.15        2.53004
              C 13 -- C 17                  -0.15        2.53004
              C 17 -- C 21                  -0.15        2.53050
              C 18 -- C 22                  -0.15        2.53050
              H 30 -- C 18                  -0.06        2.53997
              H 29 -- C 17                  -0.06        2.53997
              H 3  -- O 1                   -0.02        2.54014
              H 4  -- O 2                   -0.02        2.54014
              H 26 -- H 38                  -0.01        2.54141
              H 25 -- H 37                  -0.01        2.54141
              C 20 -- C 24                  -0.15        2.54316
              C 19 -- C 23                  -0.15        2.54316
              H 40 -- O 2                   -0.00        2.54997
              H 39 -- O 1                   -0.00        2.54997
              H 12 -- H 18                  -0.01        2.56396
              H 11 -- H 17                  -0.01        2.56396
              H 34 -- C 20                  -0.03        2.56834
              H 33 -- C 19                  -0.03        2.56834
              H 34 -- O 2                   -0.00        2.58381
              H 33 -- O 1                   -0.00        2.58381
              H 42 -- O 22                  -0.02        2.58510
              H 41 -- O 21                  -0.02        2.58510
              H 20 -- H 23                  -0.02        2.58840
              H 19 -- H 24                  -0.02        2.58840
              H 36 -- H 42                  -0.00        2.59251
              H 35 -- H 41                  -0.00        2.59251
              H 3  -- O 5                   -0.02        2.59580
              H 4  -- O 6                   -0.02        2.59580
              H 28 -- O 18                  -0.02        2.60874
              H 27 -- O 17                  -0.02        2.60874
              H 15 -- C 1                   -0.06        2.60894
              H 16 -- C 2                   -0.06        2.60894
              H 28 -- H 36                  -0.01        2.61132
              H 27 -- H 35                  -0.01        2.61132
              O 3  -- O 9                   -0.21        2.61230
              O 4  -- O 10                  -0.21        2.61230
              H 31 -- H 37                  -0.00        2.61283
              H 32 -- H 38                  -0.00        2.61283
              H 40 -- O 4                   -0.01        2.61302
              H 39 -- O 3                   -0.01        2.61302
              H 2  -- O 4                   -0.01        2.61424
              H 1  -- O 3                   -0.01        2.61424
              H 24 -- O 7                   -0.00        2.62042
              H 23 -- O 8                   -0.00        2.62042
              O 16 -- O 20                  -0.11        2.62458
              O 15 -- O 19                  -0.11        2.62458
              H 32 -- O 2                   -0.02        2.62489
              H 31 -- O 1                   -0.02        2.62489
              H 38 -- C 14                  -0.05        2.62588
              H 37 -- C 13                  -0.05        2.62588
              H 13 -- C 16                  -0.04        2.63414
              H 14 -- C 15                  -0.04        2.63414
              H 38 -- O 2                   -0.00        2.63693
              H 37 -- O 1                   -0.00        2.63693
              H 8  -- O 4                   -0.02        2.64803
              H 7  -- O 3                   -0.02        2.64803
              H 37 -- O 19                  -0.02        2.64971
              H 38 -- O 20                  -0.02        2.64971
              H 36 -- O 18                  -0.01        2.65432
              H 35 -- O 17                  -0.01        2.65432
              H 28 -- O 22                  -0.01        2.65946
              H 27 -- O 21                  -0.01        2.65946
              H 1  -- C 9                   -0.04        2.66088
              H 2  -- C 10                  -0.04        2.66088
              H 36 -- O 22                  -0.01        2.66709
              H 35 -- O 21                  -0.01        2.66709
              H 20 -- O 12                  -0.01        2.66947
              H 19 -- O 11                  -0.01        2.66947
              H 42 -- H 45                  -0.01        2.67880
              H 41 -- H 46                  -0.01        2.67880
              H 18 -- H 22                   0.02        2.67881
              H 17 -- H 21                   0.02        2.67881
              H 2  -- H 8                   -0.00        2.68765
              H 1  -- H 7                   -0.00        2.68765
              O 6  -- O 24                  -0.18        2.69169
              O 5  -- O 23                  -0.18        2.69169
              O 18 -- O 20                  -0.09        2.69237
              O 17 -- O 19                  -0.09        2.69237
              H 34 -- O 10                   0.01        2.69301
              H 33 -- O 9                    0.01        2.69301
              H 16 -- O 10                  -0.01        2.69707
              H 15 -- O 9                   -0.01        2.69707
              H 4  -- O 8                   -0.00        2.71286
              H 3  -- O 7                   -0.00        2.71286
              H 10 -- H 25                  -0.00        2.71406
              H 9  -- H 26                  -0.00        2.71406
              H 16 -- C 6                   -0.03        2.72121
              H 15 -- C 5                   -0.03        2.72121
              H 8  -- H 22                  -0.01        2.72763
              H 7  -- H 21                  -0.01        2.72763
              H 19 -- O 3                    0.01        2.72885
              H 20 -- O 4                    0.01        2.72885
              H 28 -- H 30                   0.02        2.73112
              H 27 -- H 29                   0.02        2.73112
              H 3  -- O 11                  -0.01        2.73388
              H 4  -- O 12                  -0.01        2.73388
              H 32 -- O 16                  -0.02        2.73673
              H 31 -- O 15                  -0.02        2.73673
              H 31 -- H 43                  -0.00        2.73940
              H 32 -- H 44                  -0.00        2.73940
              H 26 -- H 28                  -0.01        2.73971
              H 25 -- H 27                  -0.01        2.73971
              H 40 -- C 20                  -0.03        2.74104
              H 39 -- C 19                  -0.03        2.74104
              H 44 -- C 18                  -0.04        2.74164
              H 43 -- C 17                  -0.04        2.74164
              H 4  -- O 10                   0.01        2.74195
              H 3  -- O 9                    0.01        2.74195
              H 20 -- C 8                   -0.04        2.74408
              H 19 -- C 7                   -0.04        2.74408
              O 7  -- O 16                  -0.08        2.74671
              O 8  -- O 15                  -0.08        2.74671
              H 8  -- C 10                  -0.02        2.74871
              H 7  -- C 9                   -0.02        2.74871
              H 46 -- O 19                   0.01        2.75605
              H 45 -- O 20                   0.01        2.75605
              H 36 -- C 24                  -0.04        2.75886
              H 35 -- C 23                  -0.04        2.75886
              H 24 -- O 16                  -0.01        2.75983
              H 23 -- O 15                  -0.01        2.75983
              O 13 -- O 24                  -0.08        2.76055
              O 14 -- O 23                  -0.08        2.76055
              H 32 -- O 14                  -0.00        2.76441
              H 31 -- O 13                  -0.00        2.76441
              H 2  -- H 34                  -0.01        2.76751
              H 1  -- H 33                  -0.01        2.76751
              H 18 -- C 8                   -0.02        2.76815
              H 17 -- C 7                   -0.02        2.76815
              O 9  -- O 11                  -0.02        2.77089
              O 10 -- O 12                  -0.02        2.77089
              H 12 -- O 6                   -0.01        2.77099
              H 11 -- O 5                   -0.01        2.77099
              H 27 -- C 19                  -0.03        2.77178
              H 28 -- C 20                  -0.03        2.77178
              H 33 -- H 35                  -0.00        2.77329
              H 34 -- H 36                  -0.00        2.77329
              H 13 -- C 14                  -0.03        2.77457
              H 14 -- C 13                  -0.03        2.77457
              H 12 -- C 12                  -0.04        2.77498
              H 11 -- C 11                  -0.04        2.77498
              H 40 -- O 10                  -0.00        2.77568
              H 39 -- O 9                   -0.00        2.77568
              H 4  -- H 22                  -0.00        2.77681
              H 3  -- H 21                  -0.00        2.77681
              H 37 -- C 17                  -0.04        2.78047
              H 38 -- C 18                  -0.04        2.78047
              H 47 -- C 5                   -0.03        2.78247
              H 48 -- C 6                   -0.03        2.78247
              H 22 -- C 4                   -0.03        2.78662
              H 21 -- C 3                   -0.03        2.78662
              H 41 -- H 43                   0.02        2.79472
              H 42 -- H 44                   0.02        2.79472
              O 12 -- O 18                  -0.07        2.79568
              O 11 -- O 17                  -0.07        2.79568
              H 4  -- C 8                   -0.03        2.79823
              H 3  -- C 7                   -0.03        2.79823
              H 28 -- O 20                  -0.01        2.79914
              H 27 -- O 19                  -0.01        2.79914
              H 35 -- C 15                  -0.03        2.80245
              H 36 -- C 16                  -0.03        2.80245
              H 4  -- H 48                  -0.01        2.81405
              H 3  -- H 47                  -0.01        2.81405
              H 10 -- H 12                  -0.00        2.81431
              H 9  -- H 11                  -0.00        2.81431
              H 31 -- C 21                  -0.02        2.81431
              H 32 -- C 22                  -0.02        2.81431
              H 13 -- O 5                   -0.00        2.81618
              H 14 -- O 6                   -0.00        2.81618
              H 7  -- C 1                   -0.03        2.81870
              H 8  -- C 2                   -0.03        2.81870
              H 44 -- C 16                  -0.03        2.82274
              H 43 -- C 15                  -0.03        2.82274
              H 42 -- C 20                  -0.03        2.82600
              H 41 -- C 19                  -0.03        2.82600
              O 1  -- O 3                   -0.01        2.82708
              O 2  -- O 4                   -0.01        2.82708
              C 22 -- O 14                  -0.04        2.83290
              C 21 -- O 13                  -0.04        2.83290
              H 2  -- C 6                   -0.03        2.83957
              H 1  -- C 5                   -0.03        2.83957
              H 47 -- O 7                   -0.00        2.84221
              H 48 -- O 8                   -0.00        2.84221
              H 17 -- H 47                  -0.01        2.84481
              H 18 -- H 48                  -0.01        2.84481
              H 13 -- C 5                   -0.01        2.84814
              H 14 -- C 6                   -0.01        2.84814
              H 32 -- C 14                  -0.03        2.84823
              H 31 -- C 13                  -0.03        2.84823
              O 14 -- O 16                  -0.01        2.85438
              O 13 -- O 15                  -0.01        2.85438
              O 7  -- O 11                  -0.01        2.85604
              O 8  -- O 12                  -0.01        2.85604
              H 13 -- O 23                  -0.01        2.85647
              H 14 -- O 24                  -0.01        2.85647
              O 19 -- O 21                  -0.01        2.85814
              O 20 -- O 22                  -0.01        2.85814
              H 42 -- O 16                   0.00        2.86270
              H 41 -- O 15                   0.00        2.86270
              O 6  -- O 8                   -0.01        2.86840
              O 5  -- O 7                   -0.01        2.86840
              H 10 -- O 21                   0.00        2.86885
              H 9  -- O 22                   0.00        2.86885
              H 22 -- H 34                  -0.01        2.86986
              H 21 -- H 33                  -0.01        2.86986
              H 10 -- H 23                  -0.01        2.87802
              H 9  -- H 24                  -0.01        2.87802
              C 17 -- O 21                  -0.02        2.87829
              C 18 -- O 22                  -0.02        2.87829
              C 14 -- C 20                  -0.04        2.87937
              C 13 -- C 19                  -0.04        2.87937
              H 9  -- C 7                   -0.00        2.88300
              H 10 -- C 8                   -0.00        2.88300
              C 3  -- C 9                   -0.05        2.88446
              C 4  -- C 10                  -0.05        2.88446
              C 11 -- O 7                   -0.04        2.88456
              C 12 -- O 8                   -0.04        2.88456
              O 4  -- O 6                   -0.01        2.88824
              O 3  -- O 5                   -0.01        2.88824
              O 16 -- O 23                  -0.05        2.88987
              O 15 -- O 24                  -0.05        2.88987
              C 2  -- C 8                   -0.04        2.89605
              C 1  -- C 7                   -0.04        2.89605
              C 5  -- O 11                  -0.02        2.89623
              C 6  -- O 12                  -0.02        2.89623
              H 41 -- O 17                  -0.00        2.90321
              H 42 -- O 18                  -0.00        2.90321
              O 16 -- O 18                  -0.01        2.90429
              O 15 -- O 17                  -0.01        2.90429
              C 15 -- C 21                  -0.05        2.90519
              C 16 -- C 22                  -0.05        2.90519
              H 34 -- C 10                  -0.02        2.91204
              H 33 -- C 9                   -0.02        2.91204
              H 30 -- O 14                  -0.00        2.91533
              H 29 -- O 13                  -0.00        2.91533
              H 29 -- O 17                   0.00        2.91679
              H 30 -- O 18                   0.00        2.91679
              H 8  -- O 8                    0.02        2.91767
              H 7  -- O 7                    0.02        2.91767
              H 48 -- O 15                  -0.00        2.92094
              H 47 -- O 16                  -0.00        2.92094
              H 6  -- C 2                    0.01        2.92145
              H 5  -- C 1                    0.01        2.92145
              H 38 -- H 44                  -0.00        2.92270
              H 37 -- H 43                  -0.00        2.92270
              H 17 -- H 26                  -0.01        2.92716
              H 18 -- H 25                  -0.01        2.92716
              H 48 -- O 21                   0.00        2.92740
              H 47 -- O 22                   0.00        2.92740
              H 5  -- O 1                   -0.00        2.92936
              H 6  -- O 2                   -0.00        2.92936
              H 44 -- O 16                   0.00        2.92980
              H 43 -- O 15                   0.00        2.92980
              H 36 -- O 14                   0.00        2.93014
              H 35 -- O 13                   0.00        2.93014
              C 24 -- O 2                   -0.03        2.93155
              C 23 -- O 1                   -0.03        2.93155
              H 32 -- O 20                  -0.01        2.93491
              H 31 -- O 19                  -0.01        2.93491
              H 1  -- H 31                  -0.01        2.96168
              H 2  -- H 32                  -0.01        2.96168
              H 29 -- C 13                  -0.00        2.96216
              H 30 -- C 14                  -0.00        2.96216
              H 14 -- H 27                  -0.00        2.97278
              H 13 -- H 28                  -0.00        2.97278
              O 2  -- O 18                  -0.01        2.98264
              O 1  -- O 17                  -0.01        2.98264
              H 44 -- H 45                  -0.00        2.98516
              H 43 -- H 46                  -0.00        2.98516
              H 25 -- C 21                  -0.02        2.98897
              H 26 -- C 22                  -0.02        2.98897
              C 3  -- O 7                   -0.02        2.99468
              C 4  -- O 8                   -0.02        2.99468
              C 18 -- O 14                  -0.02        2.99889
              C 17 -- O 13                  -0.02        2.99889
======================================================================


Writing analysis data to phonon.castep_bin

Writing model to phonon.check
 
 A BibTeX formatted list of references used in this run has been written to 
 phonon.bib
 
Initialisation time =      4.81 s
Calculation time    =  28256.79 s
Finalisation time   =      4.80 s
Total time          =  28266.40 s
Peak Memory Use     = 1057288 kB
  
Overall parallel efficiency rating: Mediocre (51%)                              
  
Data was distributed by:-
G-vector (8-way); efficiency rating: Mediocre (52%)                             
k-point (3-way); efficiency rating: Excellent (99%)                             
