********************************************************************************
*                       GENERAL UTILITY LATTICE PROGRAM                        *
*                                 Julian Gale                                  *
*                       Curtin Institute for Computation                       *
*                    School of Molecular and Life Sciences                     *
*                    Curtin University, Western Australia                      *
********************************************************************************
* Version = 6.2.0 * Last modified =  19th December 2023                        *
********************************************************************************
*  optimise     - perform optimisation run                                     *
*  conp         - constant pressure calculation                                *
*  phonon       - calculate phonons for final geometry                         *
*  eigenvectors - output phonon eigenvectors                                   *
*  intensity    - calculate phonon eigenvectors and estimate IR intensities    *
*  nosymmetry   - turn off symmetry after initial structure generation         *
*  molecule     - molecule option activated, Coulomb subtract within molecule  *
********************************************************************************
* CaCO3 modified  fgc pote.                                                    *
********************************************************************************


  Job Started  at 17:25.19 15th July       2024                               

  Number of CPUs =     1


  Total number of configurations input =      1

********************************************************************************
*  Input for Configuration =   1 : calcite                                     *
********************************************************************************

  Formula = Ca2C2O6                                                     

  Number of irreducible atoms/shells =      16


  Total number atoms/shells =      16

  Dimensionality = 3               :  Bulk   



  Cartesian lattice vectors (Angstroms) :

        2.490091    1.437655    5.690524
       -2.490091    1.437655    5.690524
        0.000000   -2.875309    5.690524

  Cell parameters (Angstroms/Degrees):

  a =       6.3757    alpha =  45.9787
  b =       6.3757    beta  =  45.9787
  c =       6.3757    gamma =  45.9787

  Initial cell volume =         122.228744 Angs**3

  Temperature of configuration =   0.00     K 

  Pressure of configuration =         0.000 GPa 

  Fractional coordinates of asymmetric unit :

--------------------------------------------------------------------------------
   No.  Atomic       x           y          z         Charge      Occupancy
        Label      (Frac)      (Frac)     (Frac)        (e)         (Frac)  
--------------------------------------------------------------------------------
      1 Ca    c    0.000000    0.000000    0.000000     2.00000    1.000000    
      2 Ca    c    0.500000 *  0.500000 *  0.500000 *   2.00000    1.000000    
      3 C     c    0.250000 *  0.250000 *  0.250000 *   1.34354    1.000000    
      4 C     c    0.750000 *  0.750000 *  0.750000 *   1.34354    1.000000    
      5 O     c    0.502654 *  0.997346 *  0.250000 *   1.01849    1.000000    
      6 O     c    0.250000 *  0.502654 *  0.997346 *   1.01849    1.000000    
      7 O     c    0.997346 *  0.250000 *  0.502654 *   1.01849    1.000000    
      8 O     c    0.497346 *  0.002654 *  0.750000 *   1.01849    1.000000    
      9 O     c    0.750000 *  0.497346 *  0.002654 *   1.01849    1.000000    
     10 O     c    0.002654 *  0.750000 *  0.497346 *   1.01849    1.000000    
     11 O     s    0.503238 *  0.996762 *  0.250000 *  -2.13300    1.000000    
     12 O     s    0.250000 *  0.503238 *  0.996762 *  -2.13300    1.000000    
     13 O     s    0.996762 *  0.250000 *  0.503238 *  -2.13300    1.000000    
     14 O     s    0.496762 *  0.003238 *  0.750000 *  -2.13300    1.000000    
     15 O     s    0.750000 *  0.496762 *  0.003238 *  -2.13300    1.000000    
     16 O     s    0.003238 *  0.750000 *  0.496762 *  -2.13300    1.000000    
--------------------------------------------------------------------------------


  Initial Cartesian coordinates :

--------------------------------------------------------------------------------
   No.  Atomic        x           y           z          Charge   Occupancy
        Label       (Angs)      (Angs)      (Angs)        (e)       (Frac)  
--------------------------------------------------------------------------------
      1 Ca    c     0.000000    0.000000    0.000000    2.000000    1.000000
      2 Ca    c     0.000000    0.000000    8.535786    2.000000    1.000000
      3 C     c     0.000000    0.000000    4.267893    1.343539    1.000000
      4 C     c     0.000000    0.000000   12.803680    1.343539    1.000000
      5 O     c    -1.231828    1.437655    9.958418    1.018487    1.000000
      6 O     c    -0.629131   -1.785621    9.958418    1.018487    1.000000
      7 O     c     1.860960    0.347967    9.958418    1.018487    1.000000
      8 O     c     1.231828   -1.437655    7.113155    1.018487    1.000000
      9 O     c     0.629132    1.785622    7.113155    1.018487    1.000000
     10 O     c    -1.860959   -0.347967    7.113155    1.018487    1.000000
     11 O     s    -1.228919    1.437655    9.958418   -2.133000    1.000000
     12 O     s    -0.630586   -1.783103    9.958418   -2.133000    1.000000
     13 O     s     1.859506    0.345449    9.958418   -2.133000    1.000000
     14 O     s     1.228920   -1.437655    7.113155   -2.133000    1.000000
     15 O     s     0.630586    1.783103    7.113155   -2.133000    1.000000
     16 O     s    -1.859505   -0.345448    7.113155   -2.133000    1.000000
--------------------------------------------------------------------------------



  Molecule list generated from bond lengths :

  Total number of molecules =     2

--------------------------------------------------------------------------------
Molecule No./:  Atoms
Periodicity  :  
--------------------------------------------------------------------------------
     1  0    : C    c     3 O    c     5 O    c     6 O    c     7 O    s    11
             : O    s    12 O    s    13
     2  0    : C    c     4 O    c     8 O    c     9 O    c    10 O    s    14
             : O    s    15 O    s    16
--------------------------------------------------------------------------------

  Brillouin zone sampling points :

--------------------------------------------------------------------------------
  Point number          x          y          z            Weight
--------------------------------------------------------------------------------
        1           0.000000   0.000000   0.000000     1.00000000
--------------------------------------------------------------------------------


********************************************************************************
*  General input information                                                   *
********************************************************************************

  Species output for all configurations : 

--------------------------------------------------------------------------------
  Species    Type    Atomic    Atomic    Charge       Radii (Angs)     Library
                     Number     Mass       (e)     Cova   Ionic  VDW   Symbol
--------------------------------------------------------------------------------
    Ca       Core       20      40.08   2.000000   0.990  0.000  2.750          
    C        Core        6      12.01   1.343539   0.770  0.000  1.530          
    O        Core        8      16.00   1.018487   0.730  0.000  1.360          
    O        Shell       8       0.00  -2.133000   0.730  0.000  1.360          
--------------------------------------------------------------------------------


  Lattice summation method               =    Ewald          (3-D)
                                         =    Parry          (2-D)
                                         =    Saunders et al (1-D)
  Accuracy factor for lattice sums       =   12.000


  Analytic derivatives to be used

  Time limit = Infinity


!!!!!!!!!!!!!!!!!!!!!!!!!!!!!!!!!!!!!!!!!!!!!!!!!!!!!!!!!!!!!!!!!!!!!!!!!!!!!!!!
!! WARNING : potential   1 is acting on the core of an ion with a shell
!!!!!!!!!!!!!!!!!!!!!!!!!!!!!!!!!!!!!!!!!!!!!!!!!!!!!!!!!!!!!!!!!!!!!!!!!!!!!!!!



!!!!!!!!!!!!!!!!!!!!!!!!!!!!!!!!!!!!!!!!!!!!!!!!!!!!!!!!!!!!!!!!!!!!!!!!!!!!!!!!
!! WARNING : potential   4 is acting on the core of an ion with a shell
!!!!!!!!!!!!!!!!!!!!!!!!!!!!!!!!!!!!!!!!!!!!!!!!!!!!!!!!!!!!!!!!!!!!!!!!!!!!!!!!


  Maximum range for interatomic potentials =    100000.000000 Angstroms

  General interatomic potentials :

--------------------------------------------------------------------------------
Atom  Types   Potential      Parameter       Value         Units   Cutoffs(Ang)
  1     2                                                            Min /  Max 
--------------------------------------------------------------------------------
Ca   c O    s Buckingham    Buckingham A     2154.0600    eV        0.000 10.000
                            Buckingham rho  0.28911800    Ang       
                            Buckingham C     0.0000000    eV*Ang^6  
--------------------------------------------------------------------------------
O    c O    s Spring (c-s)  Spring k 2       52.739130    eV*Ang^-2 0.000  0.800
                            Spring k 4       10000.000    eV*Ang^-4 
--------------------------------------------------------------------------------

  Intramolecular potentials :

--------------------------------------------------------------------------------
Atom  Types   Potential      Parameter       Value         Units   Cutoffs(Ang)
  1     2                                                            Min /  Max 
--------------------------------------------------------------------------------
O    c O    c Buckingham    Buckingham A     4030.3000    eV        0.000  2.500
                            Buckingham rho  0.24549700    Ang       
                            Buckingham C     0.0000000    eV*Ang^6  
--------------------------------------------------------------------------------
C    c O    c Morse         Morse  De        5.0000000    eV        0.000 1 Bond
                            Morse  a0        2.5228000    Ang^-1    
                            Morse  r0        1.1982000    Ang       
--------------------------------------------------------------------------------

  Intermolecular potentials :

--------------------------------------------------------------------------------
Atom  Types   Potential      Parameter       Value         Units   Cutoffs(Ang)
  1     2                                                            Min /  Max 
--------------------------------------------------------------------------------
O    s O    s Buckingham    Buckingham A     64727.505    eV        0.000 15.000
                            Buckingham rho  0.19891400    Ang       
                            Buckingham C     21.843570    eV*Ang^6  
--------------------------------------------------------------------------------

  Intramolecular Three-body potentials :

--------------------------------------------------------------------------------
  Atoms       Potential      Parameter       Value         Units   Cutoffs(Ang)
  1 / 2 / 3                                                          Min /  Max 
--------------------------------------------------------------------------------
C     core    Harmonic      Three-body cnst  1.7765000    eV*rad^-2 0.000 1 Bond
O     core                  Three-body angl  120.00000    degrees   0.000 1 Bond
O     core                  Three-body k4    0.0000000    eV*rad^-4 0.000 1 Bond
                            Three-body k3    0.0000000    eV*rad^-3 
--------------------------------------------------------------------------------

  Intramolecular Four-body potentials :

--------------------------------------------------------------------------------
  Atoms       Potential      Parameter       Value         Units   Cutoffs(Ang)
  1 - 4                                                             Min /  Max 
--------------------------------------------------------------------------------
C     core    Out of plane  Out of plane K2  8.8279000    eV*Ang^-2  Bonded
O     core                  Out of plane K4  0.0000000    eV*Ang^-4           
O     core                                                              
O     core
--------------------------------------------------------------------------------

********************************************************************************
*  Output for configuration   1 : calcite                                      *
********************************************************************************


  Components of energy : 

--------------------------------------------------------------------------------
  Interatomic potentials     =         -19.21769686 eV    
  Three-body potentials      =           0.00000000 eV    
  Four-body potentials       =           0.00000000 eV    
  Improper torsions          =           0.00000000 eV    
  Out of plane potentials    =           0.00000000 eV    
  Monopole - monopole (real) =          98.04226543 eV    
  Monopole - monopole (recip)=        -164.07815572 eV    
  Monopole - monopole (total)=         -66.03589029 eV    
--------------------------------------------------------------------------------
  Total lattice energy       =         -85.25358714 eV    
--------------------------------------------------------------------------------
  Total lattice energy       =           -8225.6679 kJ/(mole unit cells)
--------------------------------------------------------------------------------


  Number of variables =       51

  Maximum number of calculations  =          1000
  Maximum Hessian update interval =            10
  Maximum step size               =   1.000000000
  Maximum parameter tolerance     =   0.000010000
  Maximum function  tolerance     =   0.000010000
  Maximum gradient  tolerance     =   0.001000000
  Maximum gradient  component     =   0.010000000

  Cell parameters to be optimised using strains

  Newton-Raphson optimiser to be used

  BFGS hessian update to be used

  Lower half triangular hessian to be used

  Start of bulk optimisation :

  Cycle:      0 Energy:       -85.253587  Gnorm:      0.000028  CPU:    0.016


  **** Optimisation achieved ****


  Final energy =     -85.25358714 eV      
  Final Gnorm  =       0.00002816

  Components of energy : 

--------------------------------------------------------------------------------
  Interatomic potentials     =         -19.21769686 eV    
  Three-body potentials      =           0.00000000 eV    
  Four-body potentials       =           0.00000000 eV    
  Improper torsions          =           0.00000000 eV    
  Out of plane potentials    =           0.00000000 eV    
  Monopole - monopole (real) =          98.04226543 eV    
  Monopole - monopole (recip)=        -164.07815572 eV    
  Monopole - monopole (total)=         -66.03589029 eV    
--------------------------------------------------------------------------------
  Total lattice energy       =         -85.25358714 eV    
--------------------------------------------------------------------------------
  Total lattice energy       =           -8225.6679 kJ/(mole unit cells)
--------------------------------------------------------------------------------

  Final fractional coordinates of atoms :

--------------------------------------------------------------------------------
   No.  Atomic        x           y          z          Radius
        Label       (Frac)      (Frac)     (Frac)       (Angs) 
--------------------------------------------------------------------------------
     1  Ca    c     0.000000    0.000000    0.000000    0.000000
     2  Ca    c     0.500000    0.500000    0.500000    0.000000
     3  C     c     0.250000    0.250000    0.250000    0.000000
     4  C     c     0.750000    0.750000    0.750000    0.000000
     5  O     c     0.502654    0.997346    0.250000    0.000000
     6  O     c     0.250000    0.502654    0.997346    0.000000
     7  O     c     0.997346    0.250000    0.502654    0.000000
     8  O     c     0.497346    0.002654    0.750000    0.000000
     9  O     c     0.750000    0.497346    0.002654    0.000000
    10  O     c     0.002654    0.750000    0.497346    0.000000
    11  O     s     0.503238    0.996762    0.250000    0.000000
    12  O     s     0.250000    0.503238    0.996762    0.000000
    13  O     s     0.996762    0.250000    0.503238    0.000000
    14  O     s     0.496762    0.003238    0.750000    0.000000
    15  O     s     0.750000    0.496762    0.003238    0.000000
    16  O     s     0.003238    0.750000    0.496762    0.000000
--------------------------------------------------------------------------------

  Final Cartesian coordinates :

--------------------------------------------------------------------------------
   No.  Atomic        x           y           z          Charge   Occupancy
        Label       (Angs)      (Angs)      (Angs)        (e)       (Frac)  
--------------------------------------------------------------------------------
     1  Ca    c     0.000000    0.000000    0.000000    2.000000    1.000000
     2  Ca    c     0.000000    0.000000    8.535786    2.000000    1.000000
     3  C     c     0.000000    0.000000    4.267893    1.343539    1.000000
     4  C     c     0.000000    0.000000   12.803680    1.343539    1.000000
     5  O     c    -1.231828    1.437655    9.958418    1.018487    1.000000
     6  O     c    -0.629131   -1.785621    9.958418    1.018487    1.000000
     7  O     c     1.860960    0.347967    9.958418    1.018487    1.000000
     8  O     c     1.231828   -1.437655    7.113155    1.018487    1.000000
     9  O     c     0.629132    1.785622    7.113155    1.018487    1.000000
    10  O     c    -1.860959   -0.347967    7.113155    1.018487    1.000000
    11  O     s    -1.228919    1.437655    9.958418   -2.133000    1.000000
    12  O     s    -0.630586   -1.783103    9.958418   -2.133000    1.000000
    13  O     s     1.859506    0.345449    9.958418   -2.133000    1.000000
    14  O     s     1.228920   -1.437655    7.113155   -2.133000    1.000000
    15  O     s     0.630586    1.783103    7.113155   -2.133000    1.000000
    16  O     s    -1.859505   -0.345448    7.113155   -2.133000    1.000000
--------------------------------------------------------------------------------


  Final Cartesian lattice vectors (Angstroms) :

        2.490091    1.437655    5.690524
       -2.490091    1.437655    5.690524
        0.000000   -2.875309    5.690524


  Final cell parameters and derivatives :

--------------------------------------------------------------------------------
       a            6.375694 Angstrom     dE/de1(xx)    -0.000150 eV/strain
       b            6.375694 Angstrom     dE/de2(yy)    -0.000149 eV/strain
       c            6.375694 Angstrom     dE/de3(zz)     0.000027 eV/strain
       alpha       45.978698 Degrees      dE/de4(yz)     0.000001 eV/strain
       beta        45.978699 Degrees      dE/de5(xz)     0.000001 eV/strain
       gamma       45.978698 Degrees      dE/de6(xy)     0.000002 eV/strain
--------------------------------------------------------------------------------

  Primitive cell volume =           122.228744 Angs**3

  Density of cell =      2.719589 g/cm**3

  Non-primitive cell volume =           122.228744 Angs**3


  Final internal derivatives :

--------------------------------------------------------------------------------
   No.  Atomic          a             b             c           Radius
        Label          (eV)          (eV)          (eV)        (eV/Angs)
--------------------------------------------------------------------------------
      1 Ca    c       0.000000      0.000000      0.000000      0.000000
      2 Ca    c      -0.000000     -0.000000     -0.000000      0.000000
      3 C     c       0.000002      0.000000     -0.000002      0.000000
      4 C     c      -0.000002      0.000000      0.000002      0.000000
      5 O     c      -0.000306      0.000305     -0.000001      0.000000
      6 O     c       0.000001     -0.000305      0.000304      0.000000
      7 O     c       0.000303      0.000000     -0.000301      0.000000
      8 O     c       0.000306     -0.000305      0.000001      0.000000
      9 O     c      -0.000001      0.000305     -0.000304      0.000000
     10 O     c      -0.000303     -0.000000      0.000301      0.000000
     11 O     s       0.000276     -0.000275      0.000001      0.000000
     12 O     s      -0.000001      0.000275     -0.000275      0.000000
     13 O     s      -0.000275      0.000000      0.000274      0.000000
     14 O     s      -0.000276      0.000275     -0.000001      0.000000
     15 O     s       0.000001     -0.000275      0.000275      0.000000
     16 O     s       0.000275     -0.000000     -0.000274      0.000000
--------------------------------------------------------------------------------
  Maximum abs         0.000306      0.000305      0.000304      0.000000
--------------------------------------------------------------------------------


  Born effective charge tensors : 

-------------------------------------------------------------------------------
  Atom             x           y             z
-------------------------------------------------------------------------------
    1 Ca    x       2.10578395     -0.02209201      0.00000002
            y       0.02209205      2.10578398      0.00000003
            z       0.00000002      0.00000004      2.01589171
-------------------------------------------------------------------------------
    2 Ca    x       2.10578397      0.02209202      0.00000001
            y      -0.02209204      2.10578396      0.00000001
            z       0.00000001      0.00000001      2.01589171
-------------------------------------------------------------------------------
    3 C     x       1.68158333     -0.00000000     -0.00000000
            y      -0.00000000      1.68158332     -0.00000001
            z      -0.00000000     -0.00000001      1.94867709
-------------------------------------------------------------------------------
    4 C     x       1.68158333     -0.00000000     -0.00000000
            y      -0.00000000      1.68158332     -0.00000001
            z      -0.00000000     -0.00000001      1.94867709
-------------------------------------------------------------------------------
    5 O     x      -1.20410949     -0.00000001     -0.00000001
            y      -0.00000001     -1.32080207     -0.03179547
            z      -0.00000001     -0.03767440     -1.32152295
-------------------------------------------------------------------------------
    6 O     x      -1.29162889     -0.05052936      0.02753568
            y      -0.05052936     -1.23328261      0.01589773
            z       0.03262698      0.01883719     -1.32152292
-------------------------------------------------------------------------------
    7 O     x      -1.29162891      0.05052936     -0.02753568
            y       0.05052936     -1.23328261      0.01589772
            z      -0.03262698      0.01883719     -1.32152293
-------------------------------------------------------------------------------
    8 O     x      -1.20410949     -0.00000001     -0.00000001
            y      -0.00000001     -1.32080207     -0.03179547
            z      -0.00000001     -0.03767440     -1.32152295
-------------------------------------------------------------------------------
    9 O     x      -1.29162889     -0.05052936      0.02753568
            y      -0.05052936     -1.23328261      0.01589773
            z       0.03262698      0.01883719     -1.32152292
-------------------------------------------------------------------------------
   10 O     x      -1.29162891      0.05052936     -0.02753568
            y       0.05052936     -1.23328261      0.01589772
            z      -0.03262698      0.01883719     -1.32152293
-------------------------------------------------------------------------------




  Elastic Constant Matrix: (Units=GPa)

-------------------------------------------------------------------------------
  Indices      1         2         3         4         5         6    
-------------------------------------------------------------------------------
       1    149.9678   64.9807   61.8270   19.6249   -0.0000   -0.0000
       2     64.9807  149.9678   61.8270  -19.6249   -0.0000   -0.0000
       3     61.8270   61.8270   84.6758   -0.0000   -0.0000   -0.0000
       4     19.6249  -19.6249   -0.0000   36.5451    0.0000   -0.0000
       5     -0.0000   -0.0000   -0.0000    0.0000   36.5451   19.6249
       6     -0.0000   -0.0000   -0.0000   -0.0000   19.6249   42.4935
-------------------------------------------------------------------------------


  Elastic Compliance Matrix: (Units=1/GPa)

-------------------------------------------------------------------------------
  Indices      1         2         3         4         5         6    
-------------------------------------------------------------------------------
       1    0.011834 -0.003813 -0.005857 -0.008403  0.000000 -0.000000
       2   -0.003813  0.011834 -0.005857  0.008403 -0.000000  0.000000
       3   -0.005857 -0.005857  0.020363  0.000000  0.000000  0.000000
       4   -0.008403  0.008403  0.000000  0.036388 -0.000000  0.000000
       5    0.000000 -0.000000  0.000000 -0.000000  0.036388 -0.016805
       6   -0.000000  0.000000  0.000000  0.000000 -0.016805  0.031294
-------------------------------------------------------------------------------

  Mechanical properties :

-------------------------------------------------------------------------------
  Convention :                    Reuss         Voigt         Hill
-------------------------------------------------------------------------------
  Bulk  Modulus (GPa)     =      77.05394      84.65344      80.85369
  Shear Modulus (GPa)     =      27.25066      36.18186      31.71626
-------------------------------------------------------------------------------
  Velocity S-wave (km/s)  =       3.16546       3.64749       3.41499
  Velocity P-wave (km/s)  =       6.45702       6.99043       6.72902
-------------------------------------------------------------------------------
  Compressibility (1/GPa) =    0.01297792
-------------------------------------------------------------------------------
  Stress axis :                     x             y             z
-------------------------------------------------------------------------------
  Youngs Moduli (GPa)     =      84.49936      84.49937      49.10841
-------------------------------------------------------------------------------
  Poissons Ratio (x)      =                     0.32217       0.28764
  Poissons Ratio (y)      =       0.32217                     0.28764
  Poissons Ratio (z)      =       0.49493       0.49493
-------------------------------------------------------------------------------


  Piezoelectric Strain Matrix: (Units=C/m**2)

-------------------------------------------------------------------------------
  Indices      1         2         3         4         5         6    
-------------------------------------------------------------------------------
       x     0.00000  -0.00000  -0.00000  -0.00000   0.00000  -0.00000
       y     0.00000   0.00000  -0.00000  -0.00000   0.00000  -0.00000
       z     0.00000  -0.00000  -0.00000  -0.00000  -0.00000   0.00000
-------------------------------------------------------------------------------


  Piezoelectric Stress Matrix: (Units=10**-11 C/N)

-------------------------------------------------------------------------------
  Indices      1         2         3         4         5         6    
-------------------------------------------------------------------------------
       x     0.00000  -0.00000  -0.00000  -0.00000   0.00000  -0.00000
       y     0.00000  -0.00000  -0.00000  -0.00000   0.00000  -0.00000
       z     0.00000   0.00000  -0.00000  -0.00000  -0.00000   0.00000
-------------------------------------------------------------------------------


  Static dielectric constant tensor : 

-------------------------------------------------------------------------------
              x         y         z
-------------------------------------------------------------------------------
       x     6.69901   0.00000   0.00000
       y     0.00000   6.69901   0.00000
       z     0.00000   0.00000   7.12104
--------------------------------------------------------------------------------

  High frequency dielectric constant tensor : 

-------------------------------------------------------------------------------
              x         y         z
-------------------------------------------------------------------------------
       x     1.91353  -0.00000   0.00000
       y    -0.00000   1.91353   0.00000
       z     0.00000   0.00000   2.00068
-------------------------------------------------------------------------------

  Static refractive indices : 

-------------------------------------------------------------------------------
    1 =    2.58824      2 =    2.58825      3 =    2.66853
-------------------------------------------------------------------------------

  High frequency refractive indices : 

-------------------------------------------------------------------------------
    1 =    1.38331      2 =    1.38331      3 =    1.41445
-------------------------------------------------------------------------------


  Phonon Calculation : 

  Eigenvectors will be output with mass-weighting and unphased 

  Number of k points for this configuration =        1

--------------------------------------------------------------------------------
  K point      1 =   0.000000  0.000000  0.000000  Weight =    1.000
--------------------------------------------------------------------------------

  Frequencies (cm-1) and Eigenvectors : 

  Frequency      -0.0000    0.0000    0.0000  114.7668  114.7668  127.3816
  IR Intensity    0.0000    0.0000    0.0000    0.1034    0.1034    0.1456
     in X         0.0000    0.0000    0.0000    0.0156    0.0879    0.0000
     in Y         0.0000    0.0000    0.0000    0.0879    0.0156    0.0000
     in Z         0.0000    0.0000    0.0000    0.0000    0.0000    0.1456
  Raman Intsty    0.0000    0.0000    0.0000    0.0000    0.0000    0.0000

     1 x        0.377551  0.228737  0.073174  0.335977 -0.129141 -0.000000
     1 y       -0.237750  0.375248  0.053698  0.129141  0.335977  0.000000
     1 z        0.033915  0.084188 -0.438157  0.000000 -0.000000  0.335867
     2 x        0.377551  0.228737  0.073174 -0.142578 -0.330499 -0.000000
     2 y       -0.237750  0.375248  0.053698  0.330499 -0.142578 -0.000000
     2 z        0.033915  0.084188 -0.438157  0.000000 -0.000000  0.335867
     3 x        0.206673  0.125212  0.040056 -0.022413  0.053267  0.000000
     3 y       -0.130145  0.205412  0.029394 -0.053267 -0.022413 -0.000000
     3 z        0.018565  0.046085 -0.239849 -0.000000  0.000000 -0.097433
     4 x        0.206673  0.125212  0.040056 -0.022413  0.053267  0.000000
     4 y       -0.130145  0.205412  0.029394 -0.053267 -0.022413 -0.000000
     4 z        0.018565  0.046085 -0.239849 -0.000000  0.000000 -0.097433
     5 x        0.238546  0.144522  0.046233 -0.028733  0.068287  0.000000
     5 y       -0.150216  0.237091  0.033927 -0.143440 -0.060354  0.321997
     5 z        0.021429  0.053192 -0.276838  0.427417  0.179841 -0.149056
     6 x        0.238546  0.144522  0.046233 -0.084991  0.110959 -0.278858
     6 y       -0.150216  0.237091  0.033927 -0.100768 -0.004096 -0.160999
     6 z        0.021429  0.053192 -0.276838 -0.369456  0.280234 -0.149056
     7 x        0.238546  0.144522  0.046233 -0.019907  0.138344  0.278858
     7 y       -0.150216  0.237091  0.033927 -0.073383 -0.069180 -0.160999
     7 z        0.021429  0.053192 -0.276838 -0.057962 -0.460075 -0.149056
     8 x        0.238546  0.144522  0.046233 -0.028733  0.068287  0.000000
     8 y       -0.150216  0.237091  0.033927 -0.143440 -0.060354  0.321997
     8 z        0.021429  0.053192 -0.276838  0.427417  0.179841 -0.149056
     9 x        0.238546  0.144522  0.046233 -0.084991  0.110959 -0.278858
     9 y       -0.150216  0.237091  0.033927 -0.100768 -0.004096 -0.160999
     9 z        0.021429  0.053192 -0.276838 -0.369456  0.280234 -0.149056
    10 x        0.238546  0.144522  0.046233 -0.019907  0.138344  0.278858
    10 y       -0.150216  0.237091  0.033927 -0.073383 -0.069180 -0.160999
    10 z        0.021429  0.053192 -0.276838 -0.057962 -0.460075 -0.149056


  Frequency     143.6092  147.7396  147.7396  249.2905  249.2905  265.5800
  IR Intensity    0.0000    0.0000    0.0000    0.0531    0.0531    0.0000
     in X         0.0000    0.0000    0.0000    0.0502    0.0030    0.0000
     in Y         0.0000    0.0000    0.0000    0.0030    0.0502    0.0000
     in Z         0.0000    0.0000    0.0000    0.0000    0.0000    0.0000
  Raman Intsty    0.0000    0.0000    0.0000    0.0000    0.0000    0.0000

     1 x        0.000000  0.000000  0.000000 -0.329381 -0.584997 -0.000000
     1 y        0.000000  0.000000 -0.000000 -0.584997  0.329381 -0.000000
     1 z        0.000000 -0.000000 -0.000000 -0.000000 -0.000000  0.000000
     2 x       -0.000000 -0.000000  0.000000 -0.022926  0.670960 -0.000000
     2 y        0.000000  0.000000 -0.000000  0.670960  0.022926  0.000000
     2 z        0.000000 -0.000000 -0.000000  0.000000  0.000000  0.000000
     3 x       -0.000000 -0.234053  0.125135  0.042526 -0.010376  0.060960
     3 y       -0.000000 -0.125135 -0.234053 -0.010376 -0.042525  0.134640
     3 z       -0.295046  0.000000  0.000000  0.000000 -0.000000  0.000000
     4 x        0.000000  0.234053 -0.125135  0.042526 -0.010376 -0.060960
     4 y        0.000000  0.125135  0.234053 -0.010376 -0.042525 -0.134640
     4 z        0.295046 -0.000000 -0.000000  0.000000 -0.000000 -0.000000
     5 x       -0.000000 -0.275150  0.147107  0.050676 -0.012365  0.073197
     5 y        0.263392 -0.158987 -0.297370 -0.026994 -0.110630  0.156260
     5 z       -0.261292  0.129398  0.242025  0.029883  0.122470  0.462588
     6 x       -0.228105 -0.296958  0.146396  0.089307 -0.049298  0.069019
     6 y       -0.131696 -0.159699 -0.275561  0.009939 -0.071999  0.159255
     6 z       -0.261293 -0.274299 -0.008951  0.091121 -0.087114 -0.412677
     7 x        0.228104 -0.286671  0.165639  0.101976  0.002624  0.073702
     7 y       -0.131696 -0.140456 -0.285849 -0.041983 -0.059330  0.161375
     7 z       -0.261293  0.144901 -0.233074 -0.121003 -0.035356 -0.049911
     8 x        0.000000  0.275150 -0.147107  0.050676 -0.012365 -0.073197
     8 y       -0.263392  0.158987  0.297370 -0.026994 -0.110630 -0.156260
     8 z        0.261292 -0.129398 -0.242025  0.029883  0.122470 -0.462588
     9 x        0.228105  0.296958 -0.146396  0.089307 -0.049298 -0.069019
     9 y        0.131696  0.159699  0.275561  0.009939 -0.071999 -0.159255
     9 z        0.261293  0.274299  0.008951  0.091121 -0.087114  0.412677
    10 x       -0.228104  0.286671 -0.165639  0.101976  0.002624 -0.073702
    10 y        0.131696  0.140456  0.285849 -0.041983 -0.059330 -0.161375
    10 z        0.261293 -0.144901  0.233074 -0.121003 -0.035356  0.049911


  Frequency     265.5800  301.5867  313.1906  320.7148  320.7148  338.1403
  IR Intensity    0.0000    0.0000    0.0000    0.2525    0.2525    0.1794
     in X         0.0000    0.0000    0.0000    0.0551    0.1974    0.0000
     in Y         0.0000    0.0000    0.0000    0.1974    0.0551    0.0000
     in Z         0.0000    0.0000    0.0000    0.0000    0.0000    0.1794
  Raman Intsty    0.0000    0.0000    0.0000    0.0000    0.0000    0.0000

     1 x       -0.000000  0.000000  0.000000  0.315154 -0.344414  0.000001
     1 y       -0.000000 -0.000000 -0.000000  0.344414  0.315155  0.000000
     1 z       -0.000000 -0.000000 -0.706898 -0.000000 -0.000001 -0.432354
     2 x        0.000000  0.000000  0.000000  0.106931 -0.454433  0.000000
     2 y        0.000000 -0.000000 -0.000001  0.454433  0.106931  0.000001
     2 z       -0.000000 -0.000000  0.706898  0.000001  0.000000 -0.432354
     3 x        0.134640  0.000000 -0.000000 -0.078829  0.149193 -0.000000
     3 y       -0.060960  0.000000  0.000000 -0.149193 -0.078829 -0.000000
     3 z        0.000000 -0.260765  0.000000 -0.000000  0.000000  0.187398
     4 x       -0.134640 -0.000000 -0.000000 -0.078829  0.149193 -0.000000
     4 y        0.060960 -0.000000  0.000000 -0.149193 -0.078829 -0.000000
     4 z       -0.000000  0.260765  0.000000 -0.000000  0.000000  0.187398
     5 x        0.161667  0.000000 -0.009915 -0.096942  0.183475 -0.000000
     5 y       -0.070749 -0.311855  0.000000 -0.151802 -0.080207  0.249764
     5 z       -0.209443 -0.216210  0.000000 -0.274688 -0.145136  0.173978
     6 x        0.158672  0.270074  0.004957 -0.070676  0.166967 -0.216302
     6 y       -0.074926  0.155928 -0.008586 -0.168310 -0.106474 -0.124882
     6 z       -0.295892 -0.216211 -0.000000  0.263035 -0.165318  0.173979
     7 x        0.156551 -0.270074  0.004957 -0.098106  0.152474  0.216302
     7 y       -0.070243  0.155928  0.008587 -0.182803 -0.079044 -0.124882
     7 z        0.505335 -0.216211 -0.000000  0.011652  0.310455  0.173979
     8 x       -0.161667 -0.000000 -0.009915 -0.096942  0.183475 -0.000000
     8 y        0.070749  0.311855  0.000000 -0.151802 -0.080207  0.249764
     8 z        0.209443  0.216210  0.000000 -0.274688 -0.145136  0.173978
     9 x       -0.158672 -0.270074  0.004957 -0.070676  0.166967 -0.216302
     9 y        0.074926 -0.155928 -0.008586 -0.168310 -0.106474 -0.124882
     9 z        0.295892  0.216211 -0.000000  0.263035 -0.165318  0.173979
    10 x       -0.156551  0.270074  0.004957 -0.098106  0.152474  0.216302
    10 y        0.070243 -0.155928  0.008587 -0.182803 -0.079044 -0.124882
    10 z       -0.505335  0.216211 -0.000000  0.011652  0.310455  0.173979


  Frequency     618.7378  618.7378  620.1223  620.1223  731.9542  859.9120
  IR Intensity    0.0000    0.0000    0.1467    0.1467    1.1656    0.0000
     in X         0.0000    0.0000    0.0940    0.0527    0.0000    0.0000
     in Y         0.0000    0.0000    0.0527    0.0940    0.0000    0.0000
     in Z         0.0000    0.0000    0.0000    0.0000    1.1656    0.0000
  Raman Intsty    0.0000    0.0000    0.0000    0.0000    0.0000    0.0000

     1 x        0.000000  0.000000  0.037452 -0.009542 -0.000000 -0.000000
     1 y        0.000000  0.000000  0.009542  0.037452 -0.000000  0.000000
     1 z        0.000000 -0.000000 -0.000000  0.000000  0.006593 -0.000000
     2 x        0.000000  0.000000  0.001400  0.038623  0.000000 -0.000000
     2 y       -0.000000 -0.000000 -0.038623  0.001400 -0.000000  0.000000
     2 z        0.000000 -0.000000  0.000000  0.000000  0.006593  0.000000
     3 x        0.184071  0.173322 -0.205154 -0.153559  0.000000 -0.000000
     3 y       -0.173322  0.184071  0.153559 -0.205154  0.000000  0.000000
     3 z       -0.000000  0.000000  0.000000 -0.000000  0.628803 -0.587324
     4 x       -0.184071 -0.173322 -0.205154 -0.153559  0.000000  0.000000
     4 y        0.173322 -0.184071  0.153559 -0.205154  0.000000 -0.000000
     4 z        0.000000 -0.000000  0.000000 -0.000000  0.628803  0.587324
     5 x        0.230709  0.217236 -0.247955 -0.185596 -0.000000  0.000000
     5 y        0.298928 -0.317468 -0.258947  0.345952 -0.024542  0.006143
     5 z        0.008575 -0.009107 -0.046007  0.061465 -0.185074  0.227257
     6 x        0.043081 -0.407255  0.004983  0.404981  0.021254 -0.005320
     6 y       -0.325562 -0.129840  0.331629  0.093014  0.012271 -0.003072
     6 z        0.003599  0.011980 -0.030227 -0.070576 -0.185074  0.227257
     7 x       -0.403929  0.067481  0.389968 -0.109358 -0.021254  0.005320
     7 y        0.149173  0.317170 -0.182709 -0.291971  0.012271 -0.003072
     7 z       -0.012175 -0.002873  0.076234  0.009111 -0.185074  0.227257
     8 x       -0.230709 -0.217236 -0.247955 -0.185596 -0.000000 -0.000000
     8 y       -0.298928  0.317468 -0.258947  0.345952 -0.024542 -0.006143
     8 z       -0.008575  0.009107 -0.046007  0.061465 -0.185074 -0.227257
     9 x       -0.043081  0.407255  0.004983  0.404981  0.021254  0.005320
     9 y        0.325562  0.129840  0.331629  0.093014  0.012271  0.003072
     9 z       -0.003599 -0.011980 -0.030227 -0.070576 -0.185074 -0.227257
    10 x        0.403929 -0.067481  0.389968 -0.109358 -0.021254 -0.005320
    10 y       -0.149173 -0.317170 -0.182709 -0.291971  0.012271  0.003072
    10 z        0.012175  0.002873  0.076234  0.009111 -0.185074 -0.227257


  Frequency    1085.0966 1094.7197 1463.5593 1463.5593 1469.6699 1469.6699
  IR Intensity    0.0000    0.0000    0.7356    0.7356    0.0000    0.0000
     in X         0.0000    0.0000    0.2049    0.5308    0.0000    0.0000
     in Y         0.0000    0.0000    0.5308    0.2049    0.0000    0.0000
     in Z         0.0000    0.0000    0.0000    0.0000    0.0000    0.0000
  Raman Intsty    0.5471    0.0000    0.0000    0.0000    0.0000    0.0000

     1 x        0.000000 -0.000000 -0.005997  0.005975  0.000000 -0.000000
     1 y       -0.000000 -0.000000 -0.005975 -0.005997  0.000000 -0.000000
     1 z       -0.000000  0.017173  0.000000  0.000000  0.000000  0.000000
     2 x        0.000000  0.000000 -0.002700  0.008023 -0.000000  0.000000
     2 y       -0.000000  0.000000 -0.008023 -0.002700 -0.000000 -0.000000
     2 z       -0.000000 -0.017173 -0.000000 -0.000000  0.000000 -0.000000
     3 x        0.000000 -0.000000  0.307990 -0.495731 -0.302767 -0.502121
     3 y        0.000000 -0.000000  0.495731  0.307990 -0.502121  0.302767
     3 z       -0.000000  0.000000 -0.000000  0.000000  0.000000  0.000000
     4 x       -0.000000 -0.000000  0.307990 -0.495731  0.302767  0.502121
     4 y       -0.000000 -0.000000  0.495731  0.307990  0.502121 -0.302767
     4 z        0.000000  0.000000 -0.000000  0.000000 -0.000000 -0.000000
     5 x        0.408248 -0.408128 -0.171984  0.276819  0.166583  0.276267
     5 y       -0.000000  0.000000 -0.002125 -0.001320  0.006717 -0.004050
     5 z       -0.000000  0.000000 -0.000628 -0.000390 -0.001389  0.000838
     6 x       -0.204124  0.204064  0.074960  0.144698 -0.072035  0.144483
     6 y        0.353553 -0.353449 -0.134246 -0.248264  0.138501 -0.242668
     6 z        0.000000 -0.000000  0.000652 -0.000349  0.001420  0.000784
     7 x       -0.204124  0.204064 -0.162932 -0.003101  0.161402  0.003726
     7 y       -0.353553  0.353449 -0.282045 -0.010372  0.279258 -0.009231
     7 z        0.000000 -0.000000 -0.000024  0.000739 -0.000031 -0.001622
     8 x       -0.408248 -0.408128 -0.171984  0.276819 -0.166583 -0.276267
     8 y        0.000000  0.000000 -0.002125 -0.001320 -0.006717  0.004050
     8 z        0.000000  0.000000 -0.000628 -0.000390  0.001389 -0.000838
     9 x        0.204124  0.204064  0.074960  0.144698  0.072035 -0.144483
     9 y       -0.353553 -0.353449 -0.134246 -0.248264 -0.138501  0.242668
     9 z       -0.000000 -0.000000  0.000652 -0.000349 -0.001420 -0.000784
    10 x        0.204124  0.204064 -0.162932 -0.003101 -0.161402 -0.003726
    10 y        0.353553  0.353449 -0.282045 -0.010372 -0.279258  0.009231
    10 z       -0.000000 -0.000000 -0.000024  0.000739  0.000031  0.001622




--------------------------------------------------------------------------------
  Phonon properties (per mole of unit cells): Temperature =      0.000 K
--------------------------------------------------------------------------------
  Zero point energy             =        0.963113 eV
--------------------------------------------------------------------------------

  Phonon density of states : 

--------------------------------------------------------------------------------
 Frequency (cm-1) Density of States                                             
--------------------------------------------------------------------------------
    0.00000 |******************************                                0.069
   22.96359 |                                                              0.000
   45.92719 |                                                              0.000
   68.89078 |                                                              0.000
   91.85437 |******************************                                0.069
  114.81797 |***************                                               0.034
  137.78156 |*********************************************                 0.103
  160.74516 |                                                              0.000
  183.70875 |                                                              0.000
  206.67234 |                                                              0.000
  229.63594 |******************************                                0.069
  252.59953 |******************************                                0.069
  275.56312 |                                                              0.000
  298.52672 |************************************************************  0.138
  321.49031 |***************                                               0.034
  344.45391 |                                                              0.000
  367.41750 |                                                              0.000
  390.38109 |                                                              0.000
  413.34469 |                                                              0.000
  436.30828 |                                                              0.000
  459.27187 |                                                              0.000
  482.23547 |                                                              0.000
  505.19906 |                                                              0.000
  528.16265 |                                                              0.000
  551.12625 |                                                              0.000
  574.08984 |                                                              0.000
  597.05344 |******************************                                0.069
  620.01703 |******************************                                0.069
  642.98062 |                                                              0.000
  665.94422 |                                                              0.000
  688.90781 |                                                              0.000
  711.87140 |***************                                               0.034
  734.83500 |                                                              0.000
  757.79859 |                                                              0.000
  780.76218 |                                                              0.000
  803.72578 |                                                              0.000
  826.68937 |                                                              0.000
  849.65297 |***************                                               0.034
  872.61656 |                                                              0.000
  895.58015 |                                                              0.000
  918.54375 |                                                              0.000
  941.50734 |                                                              0.000
  964.47093 |                                                              0.000
  987.43453 |                                                              0.000
 1010.39812 |                                                              0.000
 1033.36172 |                                                              0.000
 1056.32531 |                                                              0.000
 1079.28890 |******************************                                0.069
 1102.25250 |                                                              0.000
 1125.21609 |                                                              0.000
 1148.17968 |                                                              0.000
 1171.14328 |                                                              0.000
 1194.10687 |                                                              0.000
 1217.07046 |                                                              0.000
 1240.03406 |                                                              0.000
 1262.99765 |                                                              0.000
 1285.96125 |                                                              0.000
 1308.92484 |                                                              0.000
 1331.88843 |                                                              0.000
 1354.85203 |                                                              0.000
 1377.81562 |                                                              0.000
 1400.77921 |                                                              0.000
 1423.74281 |                                                              0.000
 1446.70640 |************************************************************  0.138
--------------------------------------------------------------------------------



  Time to end of optimisation =       0.0370 seconds


  Peak dynamic memory used =       1.94 MB 


  Timing analysis for GULP :

--------------------------------------------------------------------------------
  Task / Subroutine                                          Time (Seconds)
--------------------------------------------------------------------------------
  Calculation of reciprocal space energy and derivatives          0.0016
  Calculation of real space energy and derivatives                0.0275
  Calculation of three-body energy and derivatives                0.0033
  Calculation of four-body energy and derivatives                 0.0002
  Calculation of phonons                                          0.0071
  Symmetry generation of equivalent positions                     0.0002
--------------------------------------------------------------------------------
  Total CPU time                                                  0.0370
--------------------------------------------------------------------------------



  **** GULP has completed with   2 warnings - beware! ****

  Job Finished at 17:25.19 15th July       2024                               

