********************************************************************************
*                       GENERAL UTILITY LATTICE PROGRAM                        *
*                                 Julian Gale                                  *
*                      Nanochemistry Research Institute                        *
*                           Department of Chemistry                            *
*                    Curtin University, Western Australia                      *
********************************************************************************
* Version = 4.4.0 * Last modified = 17th March 2016                            *
********************************************************************************
*  optimise     - perform optimisation run                                     *
*  conp         - constant pressure calculation                                *
*  phonon       - calculate phonons for final geometry                         *
*  eigenvectors - output phonon eigenvectors                                   *
*  intensity    - calculate phonon eigenvectors and estimate IR intensities    *
*  nosymmetry   - turn off symmetry after initial structure generation         *
*  molmec       - molecule option activated, Coulomb subtract 1-2/1-3 terms    *
*  fix_molecule - fix atoms of molecule as at the start of the run             *
********************************************************************************
* Na2(SO4)2 Phonon Calculation                                                 *
********************************************************************************


  Job Started  at 19:59.50 16th November   2016                               

  Number of CPUs =     1


  Total number of configurations input =   1

********************************************************************************
*  Input for Configuration =   1 : Sodium                                      *
********************************************************************************

  Formula = S2Na2O8                                                     

  Number of irreducible atoms/shells =      20


  Total number atoms/shells =      20

  Dimensionality = 3               :  Bulk   



  Cartesian lattice vectors (Angstroms) :

        4.780000    0.000000    0.000000
       -0.719772    5.528341    0.000000
       -1.405061   -1.446482    5.747502

  Cell parameters (Angstroms/Degrees):

  a =       4.7800    alpha = 101.8710
  b =       5.5750    beta  = 103.3370
  c =       6.0910    gamma =  97.4180

  Initial cell volume =         151.880428 Angs**3

  Temperature of configuration =  0.000     K 

  Pressure of configuration =         0.000 GPa 

  Fractional coordinates of asymmetric unit :

--------------------------------------------------------------------------------
   No.  Atomic       x           y          z         Charge      Occupancy
        Label      (Frac)      (Frac)     (Frac)        (e)         (Frac)  
--------------------------------------------------------------------------------
      1 S6    c    0.611540    0.781240    0.247440     2.72122    1.000000    
      2 S6    c    0.388460 *  0.218760 *  0.752560 *   2.72122    1.000000    
      3 Na1   c    0.035900 *  0.313970 *  0.206850 *   0.79924    1.000000    
      4 Na1   c    0.964100 *  0.686030 *  0.793150 *   0.79924    1.000000    
      5 O3    c    0.578500 *  0.038800 *  0.418000 *   1.00138    1.000000    
      6 O3    c    0.421500 *  0.961200 *  0.582000 *   1.00138    1.000000    
      7 O2    c    0.772200 *  0.895900 *  0.111300 *   1.27451    1.000000    
      8 O2    c    0.227800 *  0.104100 *  0.888700 *   1.27451    1.000000    
      9 O2    c    0.317600 *  0.652600 *  0.126300 *   1.27451    1.000000    
     10 O2    c    0.682400 *  0.347400 *  0.873700 *   1.27451    1.000000    
     11 O2    c    0.770100 *  0.645100 *  0.394900 *   1.27451    1.000000    
     12 O2    c    0.229900 *  0.354900 *  0.605100 *   1.27451    1.000000    
     13 O2    s    0.772200 *  0.895900 *  0.111300 *  -2.22165    1.000000    
     14 O2    s    0.227800 *  0.104100 *  0.888700 *  -2.22165    1.000000    
     15 O2    s    0.317600 *  0.652600 *  0.126300 *  -2.22165    1.000000    
     16 O2    s    0.682400 *  0.347400 *  0.873700 *  -2.22165    1.000000    
     17 O2    s    0.770100 *  0.645100 *  0.394900 *  -2.22165    1.000000    
     18 O2    s    0.229900 *  0.354900 *  0.605100 *  -2.22165    1.000000    
     19 O3    s    0.578500 *  0.038800 *  0.418000 *  -1.68040    1.000000    
     20 O3    s    0.421500 *  0.961200 *  0.582000 *  -1.68040    1.000000    
--------------------------------------------------------------------------------


  Initial Cartesian coordinates :

--------------------------------------------------------------------------------
   No.  Atomic        x           y           z          Charge   Occupancy
        Label       (Angs)      (Angs)      (Angs)        (e)       (Frac)  
--------------------------------------------------------------------------------
      1 S6    c     2.013178    3.961043    1.422162    2.721222    1.000000
      2 S6    c     0.641989    0.120815    4.325340    2.721222    1.000000
      3 Na1   c    -0.345022    1.436528    1.188871    0.799238    1.000000
      4 Na1   c     3.000189    2.645330    4.558631    0.799238    1.000000
      5 O3    c     2.149988   -0.390130    2.402456    1.001381    1.000000
      6 O3    c     0.505180    4.471989    3.345046    1.001381    1.000000
      7 O2    c     2.889889    4.791847    0.639697    1.274509    1.000000
      8 O2    c    -0.234722   -0.709989    5.107805    1.274509    1.000000
      9 O2    c     0.870945    3.425105    0.725909    1.274509    1.000000
     10 O2    c     1.784222    0.656754    5.021592    1.274509    1.000000
     11 O2    c     2.661894    2.995117    2.269688    1.274509    1.000000
     12 O2    c    -0.006727    1.086742    3.477813    1.274509    1.000000
     13 O2    s     2.889889    4.791847    0.639697   -2.221655    1.000000
     14 O2    s    -0.234722   -0.709989    5.107805   -2.221655    1.000000
     15 O2    s     0.870945    3.425105    0.725909   -2.221655    1.000000
     16 O2    s     1.784222    0.656754    5.021592   -2.221655    1.000000
     17 O2    s     2.661894    2.995117    2.269688   -2.221655    1.000000
     18 O2    s    -0.006727    1.086742    3.477813   -2.221655    1.000000
     19 O3    s     2.149988   -0.390130    2.402456   -1.680403    1.000000
     20 O3    s     0.505180    4.471989    3.345046   -1.680403    1.000000
--------------------------------------------------------------------------------



  Molecule list generated from bond lengths :

  Total number of molecules =     1

--------------------------------------------------------------------------------
Molecule No./:  Atoms
Periodicity  :  
--------------------------------------------------------------------------------
     1  0    : S6   c     1 S6   c     2 O3   c     5 O3   c     6 O2   c     7
             : O2   c     8 O2   c     9 O2   c    10 O2   c    11 O2   c    12
             : O2   s    13 O2   s    14 O2   s    15 O2   s    16 O2   s    17
             : O2   s    18 O3   s    19 O3   s    20
--------------------------------------------------------------------------------


********************************************************************************
*  General input information                                                   *
********************************************************************************

  Species output for all configurations : 

--------------------------------------------------------------------------------
  Species    Type    Atomic    Atomic    Charge       Radii (Angs)     Library
                     Number     Mass       (e)     Cova   Ionic  VDW   Symbol
--------------------------------------------------------------------------------
    Na1      Core       11      22.99   0.799238   0.000  0.000  2.300          
    S6       Core       16      32.07   2.721222   0.700  0.000  1.700          
    O3       Core        8      16.00   1.001381   0.900  0.000  1.360          
    O3       Shell       8       0.00  -1.680403   0.900  0.000  1.360          
    O2       Core        8      16.00   1.274509   0.900  0.000  1.360          
    O2       Shell       8       0.00  -2.221655   0.900  0.000  1.360          
--------------------------------------------------------------------------------


  Lattice summation method               =    Ewald          (3-D)
                                         =    Parry          (2-D)
                                         =    Saunders et al (1-D)
  Accuracy factor for lattice sums       =   12.000


  Time limit = Infinity

  Maximum range for interatomic potentials =    100000.000000 Angstroms

  General interatomic potentials :

--------------------------------------------------------------------------------
Atom  Types   Potential         A         B         C         D     Cutoffs(Ang)
  1     2                                                            Min    Max 
--------------------------------------------------------------------------------
O2   c O2   s Spring (c-s)   56.0      5.00      0.00      0.00     0.000  0.800
O3   c O3   s Spring (c-s)   55.9      5.00      0.00      0.00     0.000  0.800
--------------------------------------------------------------------------------

  Intramolecular potentials :

--------------------------------------------------------------------------------
Atom  Types   Potential         A         B         C         D     Cutoffs(Ang)
  1     2                                                            Min    Max 
--------------------------------------------------------------------------------
S6   c O2   s Morse          448.     0.165      1.06      0.00     0.000 1 Bond
S6   c O3   s Morse          222.     0.148     0.921      0.00     0.000 1 Bond
O3   s O3   s Morse         0.132E+04 0.170      1.48      0.00     0.000 1 Bond
--------------------------------------------------------------------------------

  Intermolecular potentials :

--------------------------------------------------------------------------------
Atom  Types   Potential         A         B         C         D     Cutoffs(Ang)
  1     2                                                            Min    Max 
--------------------------------------------------------------------------------
Na1  c O2   s Buckingham    0.119E+04 0.259      0.00      0.00     0.000 10.000
Na1  c O3   s Buckingham    0.198E+06 0.183      0.00      0.00     0.000 10.000
O2   s O2   s Buckingham    0.276E+05 0.240      86.8      0.00     0.000 15.000
O2   s O3   s Buckingham    0.135E+05 0.109      0.00      0.00     0.000 15.000
--------------------------------------------------------------------------------

  Intramolecular Three-body potentials :

  Harmonic form:

--------------------------------------------------------------------------------
Atom    Atom    Atom           Force Constants            Theta     Cutoffs  
  1       2       3     (eVrad**-2/eVrad**-3/eVrad**-4)   (deg)  1-2  1-3  2-3
--------------------------------------------------------------------------------
S6    c O2    s O2    s  77.39        0.0000    0.0000   125.174     Bonded
S6    c O2    s O3    s  6.096        0.0000    0.0000   127.462     Bonded
O3    s S6    c O3    s  2.029        0.0000    0.0000    74.380     Bonded
--------------------------------------------------------------------------------

********************************************************************************
*  Output for configuration   1 : Sodium                                       *
********************************************************************************


  Components of energy : 

--------------------------------------------------------------------------------
  Interatomic potentials     =       -4442.45321426 eV
  Three-body potentials      =          11.62924261 eV
  Monopole - monopole (real) =          83.11334244 eV
  Monopole - monopole (recip)=         -77.07564974 eV
  Monopole - monopole (total)=           6.03769270 eV
--------------------------------------------------------------------------------
  Total lattice energy       =       -4424.78627894 eV
--------------------------------------------------------------------------------
  Total lattice energy       =         -426924.2369 kJ/(mole unit cells)
--------------------------------------------------------------------------------


  Number of variables =       63

  Maximum number of calculations  =           500
  Maximum Hessian update interval =            10
  Maximum step size               =   1.000000000
  Maximum parameter tolerance     =   0.000010000
  Maximum function  tolerance     =   0.000010000
  Maximum gradient  tolerance     =   0.001000000
  Maximum gradient  component     =   0.010000000

  Cell parameters to be optimised using strains

  Newton-Raphson optimiser to be used

  BFGS hessian update to be used

  Start of bulk optimisation :

  Cycle:      0 Energy:     -4424.786279  Gnorm:      2.976920  CPU:    0.060
  ** Hessian calculated **
  Cycle:      1 Energy:     -4432.585313  Gnorm:      2.203282  CPU:    0.143
  Cycle:      2 Energy:     -4434.936573  Gnorm:      1.500509  CPU:    0.200
  Cycle:      3 Energy:     -4436.230352  Gnorm:      0.926487  CPU:    0.247
  Cycle:      4 Energy:     -4437.298276  Gnorm:      1.135356  CPU:    0.293
  Cycle:      5 Energy:     -4438.143489  Gnorm:      0.825712  CPU:    0.340
  Cycle:      6 Energy:     -4438.593523  Gnorm:      0.664987  CPU:    0.387
  Cycle:      7 Energy:     -4438.908373  Gnorm:      0.444780  CPU:    0.433
  Cycle:      8 Energy:     -4439.031725  Gnorm:      0.322216  CPU:    0.480
  Cycle:      9 Energy:     -4439.144058  Gnorm:      0.271349  CPU:    0.540
  Cycle:     10 Energy:     -4439.208071  Gnorm:      0.151128  CPU:    0.587
  ** Hessian calculated **
  Cycle:     11 Energy:     -4439.351444  Gnorm:      0.178652  CPU:    0.673
  Cycle:     12 Energy:     -4439.363874  Gnorm:      0.051905  CPU:    0.717
  Cycle:     13 Energy:     -4439.365988  Gnorm:      0.020680  CPU:    0.763
  Cycle:     14 Energy:     -4439.366758  Gnorm:      0.012582  CPU:    0.810
  Cycle:     15 Energy:     -4439.367107  Gnorm:      0.012198  CPU:    0.863
  Cycle:     16 Energy:     -4439.367318  Gnorm:      0.009110  CPU:    0.910
  Cycle:     17 Energy:     -4439.367766  Gnorm:      0.014800  CPU:    0.977
  Cycle:     18 Energy:     -4439.368066  Gnorm:      0.017574  CPU:    1.030
  Cycle:     19 Energy:     -4439.368628  Gnorm:      0.014000  CPU:    1.097
  Cycle:     20 Energy:     -4439.368913  Gnorm:      0.003324  CPU:    1.143
  ** Hessian calculated **
  Cycle:     21 Energy:     -4439.368939  Gnorm:      0.001644  CPU:    1.200
  Cycle:     22 Energy:     -4439.368943  Gnorm:      0.001789  CPU:    1.267
  Cycle:     23 Energy:     -4439.368949  Gnorm:      0.000355  CPU:    1.310


  **** Optimisation achieved ****


  Final energy =   -4439.36894915 eV
  Final Gnorm  =       0.00005439

  Components of energy : 

--------------------------------------------------------------------------------
  Interatomic potentials     =       -4455.24931687 eV
  Three-body potentials      =          10.24724357 eV
  Monopole - monopole (real) =         239.36719986 eV
  Monopole - monopole (recip)=        -233.73407572 eV
  Monopole - monopole (total)=           5.63312415 eV
--------------------------------------------------------------------------------
  Total lattice energy       =       -4439.36894915 eV
--------------------------------------------------------------------------------
  Total lattice energy       =         -428331.2416 kJ/(mole unit cells)
--------------------------------------------------------------------------------

  Final fractional coordinates of atoms :

--------------------------------------------------------------------------------
   No.  Atomic        x           y          z          Radius
        Label       (Frac)      (Frac)     (Frac)       (Angs) 
--------------------------------------------------------------------------------
     1  S6    c     0.611540    0.781240    0.247440    1.000000
     2  S6    c     0.406285    0.236510    0.740105    1.000000
     3  Na1   c     0.051635    0.283832    0.194679    1.000000
     4  Na1   c     0.966189    0.733918    0.792867    1.000000
     5  O3    c     0.561563    0.995431    0.385604    1.000000
     6  O3    c     0.456261    0.022319    0.601941    1.000000
     7  O2    c     0.742480    0.882719    0.151653    1.000000
     8  O2    c     0.275344    0.135030    0.835892    1.000000
     9  O2    c     0.374697    0.696816    0.159011    1.000000
    10  O2    c     0.643128    0.320934    0.828535    1.000000
    11  O2    c     0.727528    0.705085    0.392805    1.000000
    12  O2    c     0.290297    0.312665    0.594740    1.000000
    13  O2    s     0.744822    0.885140    0.149628    1.000000
    14  O2    s     0.273002    0.132610    0.837917    1.000000
    15  O2    s     0.370917    0.693024    0.154737    1.000000
    16  O2    s     0.646907    0.324725    0.832808    1.000000
    17  O2    s     0.729733    0.703877    0.394695    1.000000
    18  O2    s     0.288092    0.313874    0.592850    1.000000
    19  O3    s     0.566723    0.985220    0.373057    0.000000
    20  O3    s     0.451101    0.032530    0.614487    0.000000
--------------------------------------------------------------------------------

  Final Cartesian coordinates :

--------------------------------------------------------------------------------
   No.  Atomic        x           y           z          Charge   Occupancy
        Label       (Angs)      (Angs)      (Angs)        (e)       (Frac)  
--------------------------------------------------------------------------------
     1  S6    c     1.902829    3.682676    1.326820    2.721222    1.000000
     2  S6    c     0.703737    0.220950    3.949885    2.721222    1.000000
     3  Na1   c    -0.215541    1.197726    1.038009    0.799238    1.000000
     4  Na1   c     2.822107    2.705900    4.238696    0.799238    1.000000
     5  O3    c     1.350178    4.598530    2.062245    1.001381    1.000000
     6  O3    c     1.256387   -0.694903    3.214457    1.001381    1.000000
     7  O2    c     2.549863    4.332686    0.818139    1.274509    1.000000
     8  O2    c     0.056701   -0.429061    4.458563    1.274509    1.000000
     9  O2    c     1.007219    3.368041    0.852222    1.274509    1.000000
    10  O2    c     1.599347    0.535582    4.424483    1.274509    1.000000
    11  O2    c     2.288123    3.095584    2.103244    1.274509    1.000000
    12  O2    c     0.318444    0.808044    3.173461    1.274509    1.000000
    13  O2    s     2.561432    4.347846    0.807375   -2.221655    1.000000
    14  O2    s     0.045133   -0.444221    4.469327   -2.221655    1.000000
    15  O2    s     0.998341    3.354298    0.829397   -2.221655    1.000000
    16  O2    s     1.608225    0.549325    4.447308   -2.221655    1.000000
    17  O2    s     2.296429    3.086828    2.113346   -2.221655    1.000000
    18  O2    s     0.310138    0.816800    3.163359   -2.221655    1.000000
    19  O3    s     1.396859    4.562865    1.995462   -1.680403    1.000000
    20  O3    s     1.209705   -0.659238    3.281240   -1.680403    1.000000
--------------------------------------------------------------------------------


  Final Cartesian lattice vectors (Angstroms) :

        4.513475   -0.002859    0.014355
       -0.682945    5.141459   -0.000823
       -1.308591   -1.342910    5.329306


  Final cell parameters and derivatives :

--------------------------------------------------------------------------------
       a            4.513499 Angstrom     dE/de1(xx)    -0.000115 eV/strain
       b            5.186619 Angstrom     dE/de2(yy)    -0.000291 eV/strain
       c            5.649542 Angstrom     dE/de3(zz)     0.000571 eV/strain
       alpha      101.846067 Degrees      dE/de4(yz)    -0.000173 eV/strain
       beta       103.207354 Degrees      dE/de5(xz)     0.000152 eV/strain
       gamma       97.602645 Degrees      dE/de6(xy)    -0.000243 eV/strain
--------------------------------------------------------------------------------

  Primitive cell volume =           123.765439 Angs**3

  Density of cell =      3.194865 g/cm**3

  Non-primitive cell volume =           123.765439 Angs**3


  Final internal derivatives :

--------------------------------------------------------------------------------
   No.  Atomic          a             b             c           Radius
        Label          (eV)          (eV)          (eV)        (eV/Angs)
--------------------------------------------------------------------------------
      1 S6    c       0.000000      0.000000      0.000000      0.000000
      2 S6    c      -0.000317      0.001174     -0.001508      0.000000
      3 Na1   c      -0.000013     -0.000045     -0.000011      0.000000
      4 Na1   c       0.000019      0.000052      0.000017      0.000000
      5 O3    c       0.000000     -0.000045      0.000016      0.000000
      6 O3    c       0.000006      0.000028      0.000001      0.000000
      7 O2    c      -0.000023      0.000050      0.000072      0.000000
      8 O2    c       0.000008     -0.000109      0.000023      0.000000
      9 O2    c       0.000014     -0.000040      0.000081      0.000000
     10 O2    c      -0.000043      0.000028      0.000008      0.000000
     11 O2    c      -0.000062      0.000009     -0.000003      0.000000
     12 O2    c       0.000025     -0.000049      0.000039      0.000000
     13 O2    s      -0.000617      0.000176     -0.000751      0.000000
     14 O2    s       0.000550     -0.000143      0.000697      0.000000
     15 O2    s       0.000042      0.000920     -0.001269      0.000000
     16 O2    s      -0.000035     -0.000987      0.001259      0.000000
     17 O2    s       0.000140      0.000241      0.000271      0.000000
     18 O2    s      -0.000168     -0.000233     -0.000273      0.000000
     19 O3    s       0.000140     -0.000339      0.000054      0.000000
     20 O3    s      -0.000146      0.000360     -0.000083      0.000000
--------------------------------------------------------------------------------
  Maximum abs         0.000617      0.001174      0.001508      0.000000
--------------------------------------------------------------------------------


  Born effective charge tensors : 

-------------------------------------------------------------------------------
  Atom             x           y             z
-------------------------------------------------------------------------------
   1 S6    x      -1.1642     -0.2648     -0.2064
           y      -0.2547     -0.8406      0.3737
           z      -0.2051      0.3875     -1.0439
-------------------------------------------------------------------------------
   2 S6    x      -1.1642     -0.2648     -0.2064
           y      -0.2547     -0.8406      0.3737
           z      -0.2051      0.3875     -1.0439
-------------------------------------------------------------------------------
   3 Na1   x       0.9043      0.0194      0.0377
           y       0.0303      0.8857     -0.0294
           z       0.0248     -0.0182      0.8939
-------------------------------------------------------------------------------
   4 Na1   x       0.9043      0.0194      0.0377
           y       0.0303      0.8857     -0.0294
           z       0.0248     -0.0182      0.8939
-------------------------------------------------------------------------------
   5 O3    x      -0.4971      0.0051     -0.0426
           y      -0.0033     -0.4862     -0.0073
           z      -0.0556     -0.0103     -0.4722
-------------------------------------------------------------------------------
   6 O3    x      -0.4971      0.0051     -0.0426
           y      -0.0033     -0.4862     -0.0073
           z      -0.0556     -0.0103     -0.4722
-------------------------------------------------------------------------------
   7 O2    x       0.3637     -0.2874      0.4830
           y      -0.1911     -0.1565     -0.0313
           z       0.5287      0.0500      0.4330
-------------------------------------------------------------------------------
   8 O2    x       0.3637     -0.2874      0.4830
           y      -0.1911     -0.1565     -0.0313
           z       0.5287      0.0500      0.4330
-------------------------------------------------------------------------------
   9 O2    x      -0.2512      0.0728     -0.1380
           y      -0.0083      0.3875     -0.4770
           z      -0.2385     -0.4896      0.4167
-------------------------------------------------------------------------------
  10 O2    x      -0.2512      0.0728     -0.1380
           y      -0.0083      0.3875     -0.4770
           z      -0.2385     -0.4896      0.4167
-------------------------------------------------------------------------------
  11 O2    x       0.6444      0.4550     -0.1337
           y       0.4272      0.2100      0.1712
           z      -0.0543      0.0805     -0.2275
-------------------------------------------------------------------------------
  12 O2    x       0.6444      0.4550     -0.1337
           y       0.4272      0.2100      0.1712
           z      -0.0543      0.0805     -0.2275
-------------------------------------------------------------------------------




  Elastic Constant Matrix: (Units=GPa)

-------------------------------------------------------------------------------
  Indices      1         2         3         4         5         6    
-------------------------------------------------------------------------------
       1     58.4258   23.4218   33.4131    1.8176   -0.2002   -0.4668
       2     23.4218   41.2231   29.9183   -8.7633   -0.3945   10.6538
       3     33.4131   29.9183   61.0418    3.1330   -1.8334   -7.1002
       4      1.8176   -8.7633    3.1330   14.2928   -3.3595   -0.1517
       5     -0.2002   -0.3945   -1.8334   -3.3595   18.6028    1.2734
       6     -0.4668   10.6538   -7.1002   -0.1517    1.2734   21.4999
-------------------------------------------------------------------------------


  Elastic Compliance Matrix: (Units=1/GPa)

-------------------------------------------------------------------------------
  Indices      1         2         3         4         5         6    
-------------------------------------------------------------------------------
       1    0.027126 -0.014988 -0.006282 -0.011954 -0.003218  0.006048
       2   -0.014988  0.122139 -0.065606  0.094698  0.018743 -0.082956
       3   -0.006282 -0.065606  0.060604 -0.054239 -0.008877  0.052530
       4   -0.011954  0.094698 -0.054239  0.147230  0.027619 -0.065694
       5   -0.003218  0.018743 -0.008877  0.027619  0.059299 -0.015606
       6    0.006048 -0.082956  0.052530 -0.065694 -0.015606  0.105559
-------------------------------------------------------------------------------

  Mechanical properties :

-------------------------------------------------------------------------------
  Convention :                    Reuss         Voigt         Hill
-------------------------------------------------------------------------------
  Bulk  Modulus (GPa)     =      27.68851      37.13302      32.41076
  Shear Modulus (GPa)     =       7.06467      15.80828      11.43647
-------------------------------------------------------------------------------
  Velocity S-wave (km/s)  =       1.48703       2.22442       1.89199
  Velocity P-wave (km/s)  =       3.40807       4.26850       3.86232
-------------------------------------------------------------------------------
  Compressibility (1/GPa) =    0.03611607
-------------------------------------------------------------------------------
  Stress axis :                     x             y             z
-------------------------------------------------------------------------------
  Youngs Moduli (GPa)     =      36.86531       8.18741      16.50070
-------------------------------------------------------------------------------
  Poissons Ratio (x)      =                     0.12271       0.10365
  Poissons Ratio (y)      =       0.55254                     1.08255
  Poissons Ratio (z)      =       0.23157       0.53714
-------------------------------------------------------------------------------


  Piezoelectric Strain Matrix: (Units=C/m**2)

-------------------------------------------------------------------------------
  Indices      1         2         3         4         5         6    
-------------------------------------------------------------------------------
       x     0.00002  -0.00002  -0.00005   0.00000   0.00002  -0.00001
       y     0.00000   0.00004   0.00003  -0.00000  -0.00002   0.00002
       z     0.00002  -0.00000  -0.00002  -0.00000   0.00000   0.00001
-------------------------------------------------------------------------------


  Piezoelectric Stress Matrix: (Units=10**-11 C/N)

-------------------------------------------------------------------------------
  Indices      1         2         3         4         5         6    
-------------------------------------------------------------------------------
       x     0.00008   0.00023  -0.00028   0.00023   0.00014  -0.00025
       y    -0.00004  -0.00002   0.00010  -0.00006  -0.00010   0.00015
       z     0.00008  -0.00010  -0.00001  -0.00011  -0.00002   0.00009
-------------------------------------------------------------------------------


  Static dielectric constant tensor : 

-------------------------------------------------------------------------------
              x         y         z
-------------------------------------------------------------------------------
       x     4.91396  -1.54735   0.03165
       y    -1.54735   3.94983   0.36136
       z     0.03165   0.36136   3.27743
--------------------------------------------------------------------------------

  High frequency dielectric constant tensor : 

-------------------------------------------------------------------------------
              x         y         z
-------------------------------------------------------------------------------
       x     1.58528  -0.05691  -0.05088
       y    -0.05691   1.63051   0.08556
       z    -0.05088   0.08556   1.62095
-------------------------------------------------------------------------------

  Static refractive indices : 

-------------------------------------------------------------------------------
    1 =    1.62926      2 =    1.84966      3 =    2.46282
-------------------------------------------------------------------------------

  High frequency refractive indices : 

-------------------------------------------------------------------------------
    1 =    1.24082      2 =    1.24489      3 =    1.32188
-------------------------------------------------------------------------------


  Phonon Calculation : 

  Number of k points for this configuration =        1

--------------------------------------------------------------------------------
  K point      1 =   0.000000  0.000000  0.000000  Weight =    1.000
--------------------------------------------------------------------------------

 Frequencies (cm-1) and Eigenvectors : 

 Frequency      -0.0000    0.0000    0.0000   81.1770  102.2111  112.6351
 IR Intensity    0.0000    0.0000    0.0000    0.0670    0.0000    0.0000
    in X         0.0000    0.0000    0.0000    0.0444    0.0000    0.0000
    in Y         0.0000    0.0000    0.0000    0.0226    0.0000    0.0000
    in Z         0.0000    0.0000    0.0000    0.0000    0.0000    0.0000
 Raman Intsty    0.0000    0.0000    0.0000    0.0000    0.2050    0.1985

     1 x       0.199415  0.307844 -0.012060  0.077120  0.262888 -0.041256
     1 y       0.306574 -0.196869  0.043991 -0.085520 -0.018021 -0.178138
     1 z       0.030432 -0.033978 -0.364142 -0.068374  0.090570  0.226000
     2 x       0.199415  0.307844 -0.012060  0.077124 -0.262886  0.041257
     2 y       0.306574 -0.196869  0.043991 -0.085522  0.018019  0.178137
     2 z       0.030432 -0.033978 -0.364142 -0.068371 -0.090572 -0.226000
     3 x       0.168841  0.260646 -0.010211 -0.385132 -0.214878 -0.206327
     3 y       0.259570 -0.166685  0.037246  0.328489  0.202040 -0.115432
     3 z       0.025766 -0.028769 -0.308312  0.118940  0.028993 -0.354949
     4 x       0.168841  0.260646 -0.010211 -0.385138  0.214869  0.206324
     4 y       0.259570 -0.166685  0.037246  0.328492 -0.202031  0.115436
     4 z       0.025766 -0.028769 -0.308312  0.118938 -0.028988  0.354952
     5 x       0.140854  0.217441 -0.008518  0.230995  0.343312 -0.077037
     5 y       0.216544 -0.139055  0.031072 -0.115847  0.007507 -0.061916
     5 z       0.021495 -0.024000 -0.257206  0.155840  0.227332 -0.048074
     6 x       0.140854  0.217441 -0.008518  0.231002 -0.343310  0.077036
     6 y       0.216544 -0.139055  0.031072 -0.115848 -0.007509  0.061914
     6 z       0.021495 -0.024000 -0.257206  0.155844 -0.227332  0.048073
     7 x       0.140854  0.217441 -0.008518 -0.022549  0.128859 -0.050817
     7 y       0.216544 -0.139055  0.031072 -0.001360 -0.008287 -0.174468
     7 z       0.021495 -0.024000 -0.257206 -0.075834 -0.016678  0.067666
     8 x       0.140854  0.217441 -0.008518 -0.022547 -0.128858  0.050818
     8 y       0.216544 -0.139055  0.031072 -0.001361  0.008286  0.174468
     8 z       0.021495 -0.024000 -0.257206 -0.075834  0.016677 -0.067666
     9 x       0.140854  0.217441 -0.008518 -0.042913  0.102483 -0.011157
     9 y       0.216544 -0.139055  0.031072  0.034473  0.034420 -0.253857
     9 z       0.021495 -0.024000 -0.257206  0.064362  0.196635  0.218049
    10 x       0.140854  0.217441 -0.008518 -0.042911 -0.102482  0.011159
    10 y       0.216544 -0.139055  0.031072  0.034472 -0.034421  0.253855
    10 z       0.021495 -0.024000 -0.257206  0.064367 -0.196636 -0.218050
    11 x       0.140854  0.217441 -0.008518  0.186933  0.304942 -0.015355
    11 y       0.216544 -0.139055  0.031072 -0.189948 -0.063147  0.015305
    11 z       0.021495 -0.024000 -0.257206 -0.190145 -0.025571  0.267098
    12 x       0.140854  0.217441 -0.008518  0.186939 -0.304940  0.015356
    12 y       0.216544 -0.139055  0.031072 -0.189949  0.063143 -0.015305
    12 z       0.021495 -0.024000 -0.257206 -0.190144  0.025568 -0.267099


 Frequency     120.9304  121.7652  133.4508  159.4971  172.9421  196.1451
 IR Intensity    0.0000    0.0505    0.0000    0.0089    0.0000    0.0813
    in X         0.0000    0.0001    0.0000    0.0007    0.0000    0.0434
    in Y         0.0000    0.0107    0.0000    0.0055    0.0000    0.0379
    in Z         0.0000    0.0397    0.0000    0.0027    0.0000    0.0000
 Raman Intsty    0.0006    0.0000    0.0832    0.0000    0.0048    0.0000

     1 x       0.123975 -0.081624  0.121418  0.022726  0.021290  0.079481
     1 y       0.000306  0.073790  0.203241  0.015092 -0.078115  0.073935
     1 z       0.086575  0.040491  0.084665  0.001077  0.059121  0.006690
     2 x      -0.123967 -0.081638 -0.121418  0.022723 -0.021290  0.079481
     2 y      -0.000313  0.073790 -0.203241  0.015088  0.078115  0.073935
     2 z      -0.086578  0.040480 -0.084666  0.001076 -0.059121  0.006690
     3 x       0.575054  0.149131  0.046133 -0.074795 -0.072503 -0.379947
     3 y      -0.211229 -0.240330  0.361880 -0.115317  0.034773 -0.344240
     3 z      -0.199300 -0.307328 -0.167329  0.065838 -0.095148  0.006503
     4 x      -0.575068  0.149083 -0.046133 -0.074799  0.072504 -0.379945
     4 y       0.211251 -0.240314 -0.361877 -0.115325 -0.034775 -0.344238
     4 z       0.199326 -0.307306  0.167331  0.065840  0.095151  0.006504
     5 x       0.136288  0.192104 -0.198719  0.029760  0.077028  0.220625
     5 y       0.010538  0.013019  0.062054  0.110851 -0.031650  0.216642
     5 z       0.089939  0.306442 -0.122480 -0.112517  0.052284 -0.064618
     6 x      -0.136305  0.192091  0.198717  0.029765 -0.077027  0.220625
     6 y      -0.010539  0.013018 -0.062057  0.110850  0.031651  0.216642
     6 z      -0.089966  0.306434  0.122480 -0.112514 -0.052285 -0.064618
     7 x       0.089719 -0.140359  0.098226 -0.196342  0.280887  0.216019
     7 y      -0.013091  0.087799  0.203051 -0.024878 -0.116877 -0.141036
     7 z       0.053077 -0.023603  0.140864 -0.319368  0.318952 -0.000733
     8 x      -0.089706 -0.140369 -0.098222 -0.196341 -0.280889  0.216018
     8 y       0.013083  0.087800 -0.203051 -0.024882  0.116878 -0.141037
     8 z      -0.053074 -0.023609 -0.140858 -0.319368 -0.318956 -0.000734
     9 x       0.069909 -0.201343  0.209354 -0.050058  0.062701  0.029927
     9 y       0.019287  0.186253  0.006754 -0.254683  0.218745  0.182044
     9 z       0.082027  0.185976 -0.084372  0.283429 -0.211884 -0.030342
    10 x      -0.069891 -0.201352 -0.209351 -0.050062 -0.062703  0.029927
    10 y      -0.019303  0.186254 -0.006750 -0.254681 -0.218748  0.182044
    10 z      -0.082044  0.185966  0.084366  0.283427  0.211887 -0.030342
    11 x       0.100151  0.086456  0.026592  0.274127 -0.300359 -0.123656
    11 y      -0.003218 -0.103467  0.254296  0.285588 -0.286722  0.050314
    11 z       0.047410 -0.157737  0.173987  0.068012  0.036985  0.078428
    12 x      -0.100159  0.086443 -0.026598  0.274123  0.300362 -0.123656
    12 y       0.003226 -0.103468 -0.254300  0.285579  0.286724  0.050314
    12 z      -0.047396 -0.157744 -0.173987  0.068010 -0.036984  0.078427


 Frequency     210.4891  213.9140  229.0540  245.3828  245.8516  333.8147
 IR Intensity    0.0000    0.0593    0.0000    0.0118    0.0000    0.0000
    in X         0.0000    0.0055    0.0000    0.0010    0.0000    0.0000
    in Y         0.0000    0.0049    0.0000    0.0088    0.0000    0.0000
    in Z         0.0000    0.0489    0.0000    0.0021    0.0000    0.0000
 Raman Intsty    0.3803    0.0000    0.2064    0.0000    0.8793    1.0328

     1 x      -0.255388  0.092705 -0.034094 -0.093933 -0.026781 -0.082534
     1 y       0.052851 -0.033522  0.306562 -0.122796  0.059663  0.019075
     1 z       0.080318  0.164446  0.010985  0.055373  0.261718  0.148750
     2 x       0.255385  0.092710  0.034096 -0.093939  0.026767  0.082534
     2 y      -0.052852 -0.033523 -0.306561 -0.122790 -0.059681 -0.019075
     2 z      -0.080320  0.164443 -0.010986  0.055412 -0.261711 -0.148750
     3 x       0.140702 -0.228588 -0.226693  0.172504  0.040934 -0.009415
     3 y       0.374553  0.127817 -0.341898  0.298178 -0.093913 -0.044005
     3 z      -0.126444 -0.522276 -0.204145 -0.123610  0.486564  0.024458
     4 x      -0.140696 -0.228590  0.226691  0.172514 -0.040907  0.009416
     4 y      -0.374554  0.127809  0.341897  0.298170  0.093956  0.044005
     4 z       0.126452 -0.522277  0.204145 -0.123536 -0.486579 -0.024459
     5 x       0.147158 -0.108446  0.104435  0.217972  0.027466  0.016851
     5 y       0.043446 -0.049185  0.155079  0.142595  0.043241 -0.151794
     5 z       0.116109  0.050047  0.106415 -0.084734  0.036528  0.021728
     6 x      -0.147153 -0.108449 -0.104438  0.217978 -0.027432 -0.016852
     6 y      -0.043443 -0.049185 -0.155080  0.142600 -0.043220  0.151795
     6 z      -0.116110  0.050045 -0.106414 -0.084729 -0.036540 -0.021727
     7 x      -0.162233  0.041406 -0.005551  0.090867  0.042846 -0.304758
     7 y      -0.052099  0.006137  0.152075 -0.348318 -0.057896  0.371023
     7 z      -0.040693  0.140899 -0.002523 -0.134800  0.154581  0.379376
     8 x       0.162233  0.041407  0.005549  0.090871 -0.042833  0.304758
     8 y       0.052096  0.006140 -0.152071 -0.348328  0.057844 -0.371023
     8 z       0.040690  0.140897  0.002524 -0.134777 -0.154602 -0.379377
     9 x      -0.299738  0.154593 -0.058179 -0.181925  0.011060 -0.016958
     9 y       0.165166 -0.153454  0.280649  0.031677  0.017494 -0.053667
     9 z       0.191732  0.054269  0.035715  0.142429  0.162207  0.012488
    10 x       0.299733  0.154598  0.058181 -0.181925 -0.011089  0.016958
    10 y      -0.165162 -0.153458 -0.280651  0.031678 -0.017488  0.053666
    10 z      -0.191731  0.054265 -0.035716  0.142454 -0.162186 -0.012488
    11 x      -0.164621  0.055201 -0.058441 -0.200703 -0.129509  0.130705
    11 y       0.002725  0.090753  0.196200 -0.009538  0.166359 -0.198068
    11 z       0.027495  0.148027  0.000417  0.146762  0.275251 -0.100878
    12 x       0.164619  0.055207  0.058444 -0.200723  0.129478 -0.130705
    12 y      -0.002727  0.090753 -0.196199 -0.009516 -0.166361  0.198068
    12 z      -0.027497  0.148025 -0.000418  0.146803 -0.275231  0.100878


 Frequency     382.7219  441.3067  446.6385  473.6656  536.2435  558.9722
 IR Intensity    0.0153    0.0000    0.0110    0.0067    0.0000    0.0004
    in X         0.0038    0.0000    0.0063    0.0019    0.0000    0.0002
    in Y         0.0068    0.0000    0.0009    0.0043    0.0000    0.0001
    in Z         0.0046    0.0000    0.0037    0.0005    0.0000    0.0001
 Raman Intsty    0.0000    0.0291    0.0000    0.0000    7.1615    0.0000

     1 x       0.055235  0.063861  0.066123  0.046551  0.005203  0.004070
     1 y      -0.091520  0.034665 -0.015611  0.063279 -0.029717  0.018819
     1 z      -0.089910  0.074189  0.067516 -0.032812 -0.000888  0.027588
     2 x       0.055234 -0.063861  0.066122  0.046551 -0.005203  0.004070
     2 y      -0.091520 -0.034665 -0.015611  0.063278  0.029717  0.018818
     2 z      -0.089910 -0.074190  0.067516 -0.032812  0.000888  0.027588
     3 x       0.012919  0.003688 -0.014565 -0.012272  0.006585 -0.018152
     3 y       0.018353 -0.018394 -0.003392 -0.013650  0.009701 -0.012058
     3 z       0.021347  0.024758 -0.027956  0.015174  0.015051 -0.022778
     4 x       0.012919 -0.003688 -0.014565 -0.012272 -0.006585 -0.018152
     4 y       0.018353  0.018394 -0.003392 -0.013650 -0.009701 -0.012058
     4 z       0.021347 -0.024758 -0.027956  0.015174 -0.015051 -0.022778
     5 x      -0.283126 -0.342473 -0.307756 -0.228828 -0.083967  0.007076
     5 y       0.417033  0.010119  0.109718 -0.375868  0.628729 -0.010398
     5 z       0.386691 -0.226121 -0.316269  0.179011  0.077338  0.002299
     6 x      -0.283125  0.342474 -0.307753 -0.228829  0.083967  0.007076
     6 y       0.417032 -0.010120  0.109719 -0.375868 -0.628729 -0.010398
     6 z       0.386691  0.226122 -0.316267  0.179011 -0.077338  0.002299
     7 x       0.090073  0.090934  0.078916  0.261037 -0.093113  0.246895
     7 y      -0.134442 -0.061951 -0.040505 -0.109837 -0.047422  0.284750
     7 z      -0.129546 -0.012615  0.039310 -0.284402  0.094212 -0.157709
     8 x       0.090072 -0.090934  0.078916  0.261037  0.093112  0.246891
     8 y      -0.134441  0.061952 -0.040505 -0.109836  0.047422  0.284746
     8 z      -0.129546  0.012615  0.039309 -0.284402 -0.094211 -0.157706
     9 x       0.055689 -0.059739 -0.058655 -0.014902 -0.050942 -0.364338
     9 y      -0.095821  0.342078  0.249120  0.212160 -0.110271 -0.117041
     9 z      -0.092035  0.323047  0.273301  0.123512 -0.090117 -0.182486
    10 x       0.055689  0.059739 -0.058655 -0.014901  0.050943 -0.364331
    10 y      -0.095821 -0.342079  0.249118  0.212160  0.110270 -0.117038
    10 z      -0.092035 -0.323049  0.273299  0.123512  0.090118 -0.182483
    11 x       0.043679  0.172328  0.211339 -0.068501  0.110730  0.126364
    11 y      -0.079199 -0.216222 -0.292165  0.200319 -0.179419 -0.169500
    11 z      -0.063408 -0.077893 -0.058417  0.010144  0.057186  0.326141
    12 x       0.043679 -0.172329  0.211337 -0.068501 -0.110730  0.126361
    12 y      -0.079199  0.216224 -0.292164  0.200319  0.179420 -0.169498
    12 z      -0.063409  0.077894 -0.058418  0.010145 -0.057186  0.326136


 Frequency     561.3321  621.8371  625.6264  640.6823  641.7187  818.5780
 IR Intensity    0.0000    0.0687    0.0000    0.0673    0.0000    0.0000
    in X         0.0000    0.0529    0.0000    0.0006    0.0000    0.0000
    in Y         0.0000    0.0048    0.0000    0.0304    0.0000    0.0000
    in Z         0.0000    0.0110    0.0000    0.0363    0.0000    0.0000
 Raman Intsty   15.7040    0.0000    0.1457    0.0000    0.0997    0.5868

     1 x       0.002253 -0.173549 -0.180199 -0.019489 -0.004632 -0.008479
     1 y       0.026197 -0.047962 -0.063301 -0.138514  0.131864  0.016500
     1 z       0.032744 -0.059331 -0.045108  0.139496 -0.151293  0.017383
     2 x      -0.002253 -0.173548  0.180199 -0.019490  0.004631  0.008479
     2 y      -0.026197 -0.047961  0.063300 -0.138517 -0.131862 -0.016500
     2 z      -0.032744 -0.059332  0.045109  0.139498  0.151290 -0.017383
     3 x      -0.001976 -0.004965  0.007158 -0.003201  0.001420  0.005383
     3 y      -0.023508 -0.003467 -0.004456 -0.006864 -0.001027  0.003935
     3 z       0.018272 -0.014924  0.005066  0.014678  0.008734  0.002074
     4 x       0.001976 -0.004965 -0.007158 -0.003201 -0.001420 -0.005383
     4 y       0.023508 -0.003467  0.004456 -0.006864  0.001027 -0.003935
     4 z      -0.018272 -0.014924 -0.005066  0.014678 -0.008734 -0.002074
     5 x       0.003740  0.058804  0.023557  0.016920  0.055706 -0.385831
     5 y      -0.070225  0.024861  0.068575  0.075973 -0.128970 -0.122822
     5 z      -0.018790  0.013611  0.048363 -0.058467 -0.021890  0.574893
     6 x      -0.003740  0.058804 -0.023557  0.016919 -0.055706  0.385831
     6 y       0.070225  0.024860 -0.068575  0.075976  0.128969  0.122822
     6 z       0.018790  0.013611 -0.048363 -0.058466  0.021891 -0.574893
     7 x       0.266882 -0.047240 -0.007113  0.302789 -0.306985  0.011501
     7 y       0.281865  0.239369  0.273643  0.271463 -0.225390 -0.033979
     7 z      -0.173400 -0.276618 -0.272577 -0.000598 -0.015847 -0.034846
     8 x      -0.266887 -0.047240  0.007114  0.302795  0.306980 -0.011501
     8 y      -0.281870  0.239368 -0.273644  0.271467  0.225386  0.033979
     8 z       0.173402 -0.276616  0.272577 -0.000598  0.015847  0.034846
     9 x      -0.381605  0.406816  0.398866 -0.056613  0.108447  0.007799
     9 y      -0.071060  0.052836  0.024434 -0.219049  0.211217  0.010064
     9 z      -0.143478  0.162403  0.177060  0.207512 -0.186519 -0.037612
    10 x       0.381611  0.406815 -0.398868 -0.056614 -0.108446 -0.007800
    10 y       0.071060  0.052835 -0.024434 -0.219053 -0.211213 -0.010064
    10 z       0.143481  0.162402 -0.177060  0.207515  0.186515  0.037612
    11 x       0.119826 -0.166726 -0.183236 -0.231667  0.205437  0.026945
    11 y      -0.166423 -0.245007 -0.236699  0.075943 -0.115102  0.006662
    11 z       0.313025  0.202491  0.154658 -0.363535  0.384067 -0.002096
    12 x      -0.119828 -0.166725  0.183236 -0.231670 -0.205433 -0.026945
    12 y       0.166427 -0.245007  0.236700  0.075946  0.115101 -0.006662
    12 z      -0.313030  0.202491 -0.154659 -0.363541 -0.384060  0.002096


 Frequency    1015.6329 1021.1422 1194.7964 1203.7221 1208.1066 1215.4777
 IR Intensity    0.0057    0.0000    0.2160    0.2156    0.0000    0.0000
    in X         0.0028    0.0000    0.1735    0.0038    0.0000    0.0000
    in Y         0.0015    0.0000    0.0102    0.0923    0.0000    0.0000
    in Z         0.0014    0.0000    0.0323    0.1195    0.0000    0.0000
 Raman Intsty    0.0000    0.0132    0.0000    0.0000    0.0019    0.0008

     1 x      -0.253608 -0.251329  0.468654  0.066297  0.082908  0.466901
     1 y       0.383792  0.386537  0.135258  0.361398  0.362954  0.119378
     1 z       0.319974  0.325425  0.210566 -0.380353 -0.373256  0.219875
     2 x      -0.253611  0.251326  0.468656  0.066296 -0.082912 -0.466898
     2 y       0.383796 -0.386532  0.135256  0.361396 -0.362959 -0.119377
     2 z       0.319978 -0.325422  0.210569 -0.380349  0.373258 -0.219874
     3 x       0.003272  0.002226 -0.004205 -0.001370  0.007833  0.004573
     3 y       0.001120  0.004645  0.000991  0.002549  0.007391  0.005233
     3 z       0.003782 -0.002421 -0.001503 -0.000699  0.008982 -0.003220
     4 x       0.003272 -0.002226 -0.004205 -0.001370 -0.007833 -0.004573
     4 y       0.001120 -0.004645  0.000991  0.002549 -0.007391 -0.005233
     4 z       0.003782  0.002421 -0.001503 -0.000699 -0.008982  0.003220
     5 x       0.024464  0.030595 -0.045081 -0.007048 -0.004533 -0.027790
     5 y      -0.041319 -0.035514 -0.013998 -0.040120 -0.046120 -0.012480
     5 z      -0.029815 -0.043010 -0.020627  0.039661  0.024762 -0.017951
     6 x       0.024464 -0.030595 -0.045081 -0.007048  0.004533  0.027790
     6 y      -0.041319  0.035514 -0.013997 -0.040119  0.046120  0.012480
     6 z      -0.029816  0.043010 -0.020627  0.039661 -0.024762  0.017951
     7 x       0.105714  0.104602 -0.249745  0.080690  0.070540 -0.254266
     7 y      -0.184099 -0.177470  0.010279 -0.073280 -0.058973  0.015469
     7 z      -0.136163 -0.129907 -0.192353  0.174187  0.170534 -0.201102
     8 x       0.105715 -0.104601 -0.249747  0.080689 -0.070539  0.254265
     8 y      -0.184101  0.177468  0.010280 -0.073280  0.058974 -0.015470
     8 z      -0.136165  0.129906 -0.192355  0.174186 -0.170535  0.201101
     9 x       0.116297  0.113753 -0.076005 -0.050169 -0.051911 -0.068923
     9 y      -0.164088 -0.167059 -0.041230 -0.254993 -0.261377 -0.033332
     9 z      -0.133058 -0.131087 -0.047625  0.261658  0.263674 -0.056709
    10 x       0.116298 -0.113751 -0.076006 -0.050169  0.051912  0.068922
    10 y      -0.164090  0.167057 -0.041229 -0.254991  0.261381  0.033332
    10 z      -0.133060  0.131086 -0.047627  0.261655 -0.263676  0.056709
    11 x       0.108651  0.103521 -0.287630 -0.115691 -0.123854 -0.287358
    11 y      -0.155194 -0.156023 -0.147732 -0.146316 -0.151713 -0.141992
    11 z      -0.158504 -0.158246 -0.035704  0.063819  0.051764 -0.030904
    12 x       0.108652 -0.103520 -0.287631 -0.115690  0.123856  0.287357
    12 y      -0.155196  0.156021 -0.147732 -0.146314  0.151714  0.141991
    12 z      -0.158506  0.158245 -0.035705  0.063818 -0.051764  0.030904




--------------------------------------------------------------------------------
  Phonon properties (per mole of unit cells): Temperature =      0.000 K
--------------------------------------------------------------------------------
  Zero point energy            =        1.009701 eV
--------------------------------------------------------------------------------

  Phonon density of states : 

--------------------------------------------------------------------------------
 Frequency (cm-1) Density of States                                             
--------------------------------------------------------------------------------
    0.00000 |****************************************                      0.057
   18.99184 |                                                              0.000
   37.98368 |                                                              0.000
   56.97552 |                                                              0.000
   75.96736 |********************                                          0.029
   94.95920 |****************************************                      0.057
  113.95104 |****************************************                      0.057
  132.94288 |********************                                          0.029
  151.93472 |********************                                          0.029
  170.92656 |********************                                          0.029
  189.91840 |********************                                          0.029
  208.91024 |****************************************                      0.057
  227.90208 |************************************************************  0.086
  246.89392 |                                                              0.000
  265.88576 |                                                              0.000
  284.87760 |                                                              0.000
  303.86944 |                                                              0.000
  322.86128 |********************                                          0.029
  341.85312 |                                                              0.000
  360.84496 |                                                              0.000
  379.83680 |********************                                          0.029
  398.82864 |                                                              0.000
  417.82048 |                                                              0.000
  436.81232 |****************************************                      0.057
  455.80416 |********************                                          0.029
  474.79600 |                                                              0.000
  493.78784 |                                                              0.000
  512.77968 |                                                              0.000
  531.77152 |********************                                          0.029
  550.76336 |****************************************                      0.057
  569.75520 |                                                              0.000
  588.74704 |                                                              0.000
  607.73888 |****************************************                      0.057
  626.73072 |****************************************                      0.057
  645.72256 |                                                              0.000
  664.71440 |                                                              0.000
  683.70624 |                                                              0.000
  702.69808 |                                                              0.000
  721.68992 |                                                              0.000
  740.68176 |                                                              0.000
  759.67360 |                                                              0.000
  778.66544 |                                                              0.000
  797.65728 |                                                              0.000
  816.64912 |********************                                          0.029
  835.64096 |                                                              0.000
  854.63280 |                                                              0.000
  873.62464 |                                                              0.000
  892.61648 |                                                              0.000
  911.60832 |                                                              0.000
  930.60016 |                                                              0.000
  949.59200 |                                                              0.000
  968.58384 |                                                              0.000
  987.57568 |                                                              0.000
 1006.56752 |****************************************                      0.057
 1025.55936 |                                                              0.000
 1044.55120 |                                                              0.000
 1063.54304 |                                                              0.000
 1082.53488 |                                                              0.000
 1101.52672 |                                                              0.000
 1120.51856 |                                                              0.000
 1139.51040 |                                                              0.000
 1158.50224 |                                                              0.000
 1177.49408 |********************                                          0.029
 1196.48592 |************************************************************  0.086
--------------------------------------------------------------------------------



  Time to end of optimisation =       1.3967 seconds


  Peak dynamic memory used =       0.63 MB 


  Timing analysis for GULP :

--------------------------------------------------------------------------------
  Task / Subroutine                                          Time (Seconds)
--------------------------------------------------------------------------------
  Calculation of reciprocal space energy and derivatives          0.0133
  Calculation of real space energy and derivatives                1.3100
  Calculation of three-body energy and derivatives                0.0500
  Calculation of phonons                                          0.0133
  Calculation of scattering                                       0.0000
  Global summation overhead                                       0.0067
--------------------------------------------------------------------------------
  Total CPU time                                                  1.3967
--------------------------------------------------------------------------------


  CIF file written as na2so42_gulp_optimised.cif                              


  Job Finished at 19:59.52 16th November   2016                               

