<?xml version="1.0" encoding="ISO-8859-1"?>
<modeling>
 <generator>
  <i name="program" type="string">vasp </i>
  <i name="version" type="string">5.4.4.18Apr17-6-g9f103f2a35  </i>
  <i name="subversion" type="string">(build May 25 2020 15:00:18) complex            parallel </i>
  <i name="platform" type="string">LinuxGNU_vivaldi </i>
  <i name="date" type="string">2021 07 03 </i>
  <i name="time" type="string">11:38:38 </i>
 </generator>
 <incar>
  <i type="int" name="ISTART">     1</i>
  <i type="string" name="PREC">accurate</i>
  <i type="int" name="ICHARG">     0</i>
  <i type="int" name="NELMIN">     4</i>
  <i type="int" name="IBRION">     8</i>
  <i name="EDIFF">      0.00000500</i>
  <i type="int" name="NSW">     1</i>
  <i type="int" name="ISIF">     3</i>
  <i name="ENCUT">    500.00000000</i>
  <i name="POTIM">      0.20000000</i>
  <i type="logical" name="LREAL"> F  </i>
  <i type="logical" name="LPLANE"> T  </i>
  <i type="int" name="ISMEAR">    -5</i>
  <i name="SIGMA">      0.05000000</i>
  <i type="int" name="LMAXMIX">     4</i>
  <i type="logical" name="LSCALU"> T  </i>
  <i type="logical" name="LASPH"> T  </i>
  <v type="int" name="KPOINT_BSE">    -1     0     0     0</v>
  <i type="logical" name="LEPSILON"> T  </i>
  <i type="logical" name="LRPA"> F  </i>
  <i type="logical" name="LASPH"> T  </i>
 </incar>
 <structure name="primitive_cell" >
  <crystal>
   <varray name="basis" >
    <v>       2.41902100       0.00000000      10.37750536 </v>
    <v>      -1.20951050       2.09493364      10.37750536 </v>
    <v>      -1.20951050      -2.09493364      10.37750536 </v>
   </varray>
   <i name="volume">    157.76989256 </i>
   <varray name="rec_basis" >
    <v>       0.27559358       0.00000000       0.03212076 </v>
    <v>      -0.13779679       0.23867104       0.03212076 </v>
    <v>      -0.13779679      -0.23867104       0.03212076 </v>
   </varray>
  </crystal>
  <varray name="positions" >
   <v>       0.39599532       0.39599532       0.39599532 </v>
   <v>      -0.22043039      -0.22043039      -0.22043039 </v>
   <v>       0.00000000       0.00000000       0.00000000 </v>
   <v>      -0.39599532      -0.39599532      -0.39599532 </v>
   <v>       0.22043039       0.22043039       0.22043039 </v>
  </varray>
 </structure>
 <varray name="primitive_index" >
  <v type="int" >        1 </v>
  <v type="int" >        3 </v>
  <v type="int" >        5 </v>
  <v type="int" >        2 </v>
  <v type="int" >        4 </v>
 </varray>
 <kpoints>
  <generation param="Gamma">
   <v type="int" name="divisions">       9        9        9 </v>
   <v name="usershift">      0.00000000       0.00000000       0.00000000 </v>
   <v name="genvec1">      0.11111111       0.00000000       0.00000000 </v>
   <v name="genvec2">     -0.00000000       0.11111111       0.00000000 </v>
   <v name="genvec3">      0.00000000       0.00000000       0.11111111 </v>
   <v name="shift">      0.00000000       0.00000000       0.00000000 </v>
  </generation>
  <varray name="kpointlist" >
   <v>       0.00000000       0.00000000       0.00000000 </v>
   <v>       0.11111111       0.00000000       0.00000000 </v>
   <v>       0.22222222       0.00000000       0.00000000 </v>
   <v>       0.33333333       0.00000000       0.00000000 </v>
   <v>       0.44444444       0.00000000       0.00000000 </v>
   <v>       0.11111111       0.11111111       0.00000000 </v>
   <v>       0.22222222       0.11111111       0.00000000 </v>
   <v>       0.33333333       0.11111111       0.00000000 </v>
   <v>       0.44444444       0.11111111       0.00000000 </v>
   <v>      -0.44444444       0.11111111       0.00000000 </v>
   <v>      -0.33333333       0.11111111       0.00000000 </v>
   <v>      -0.22222222       0.11111111       0.00000000 </v>
   <v>      -0.11111111       0.11111111       0.00000000 </v>
   <v>       0.22222222       0.22222222       0.00000000 </v>
   <v>       0.33333333       0.22222222       0.00000000 </v>
   <v>       0.44444444       0.22222222       0.00000000 </v>
   <v>      -0.44444444       0.22222222       0.00000000 </v>
   <v>      -0.33333333       0.22222222       0.00000000 </v>
   <v>      -0.22222222       0.22222222       0.00000000 </v>
   <v>       0.33333333       0.33333333       0.00000000 </v>
   <v>       0.44444444       0.33333333       0.00000000 </v>
   <v>      -0.44444444       0.33333333       0.00000000 </v>
   <v>      -0.33333333       0.33333333       0.00000000 </v>
   <v>       0.44444444       0.44444444       0.00000000 </v>
   <v>      -0.44444444       0.44444444       0.00000000 </v>
   <v>       0.11111111       0.11111111       0.11111111 </v>
   <v>       0.22222222       0.11111111       0.11111111 </v>
   <v>       0.33333333       0.11111111       0.11111111 </v>
   <v>       0.44444444       0.11111111       0.11111111 </v>
   <v>      -0.44444444       0.11111111       0.11111111 </v>
   <v>      -0.33333333       0.11111111       0.11111111 </v>
   <v>      -0.22222222       0.11111111       0.11111111 </v>
   <v>      -0.11111111       0.11111111       0.11111111 </v>
   <v>       0.22222222       0.22222222       0.11111111 </v>
   <v>       0.33333333       0.22222222       0.11111111 </v>
   <v>       0.44444444       0.22222222       0.11111111 </v>
   <v>      -0.44444444       0.22222222       0.11111111 </v>
   <v>      -0.33333333       0.22222222       0.11111111 </v>
   <v>      -0.22222222       0.22222222       0.11111111 </v>
   <v>      -0.11111111       0.22222222       0.11111111 </v>
   <v>       0.33333333       0.33333333       0.11111111 </v>
   <v>       0.44444444       0.33333333       0.11111111 </v>
   <v>      -0.44444444       0.33333333       0.11111111 </v>
   <v>      -0.33333333       0.33333333       0.11111111 </v>
   <v>      -0.22222222       0.33333333       0.11111111 </v>
   <v>      -0.11111111       0.33333333       0.11111111 </v>
   <v>       0.44444444       0.44444444       0.11111111 </v>
   <v>      -0.44444444       0.44444444       0.11111111 </v>
   <v>      -0.33333333       0.44444444       0.11111111 </v>
   <v>      -0.22222222       0.44444444       0.11111111 </v>
   <v>      -0.11111111       0.44444444       0.11111111 </v>
   <v>      -0.44444444      -0.44444444       0.11111111 </v>
   <v>      -0.33333333      -0.44444444       0.11111111 </v>
   <v>      -0.22222222      -0.44444444       0.11111111 </v>
   <v>      -0.33333333      -0.33333333       0.11111111 </v>
   <v>      -0.22222222      -0.33333333       0.11111111 </v>
   <v>      -0.22222222      -0.22222222       0.11111111 </v>
   <v>       0.22222222       0.22222222       0.22222222 </v>
   <v>       0.33333333       0.22222222       0.22222222 </v>
   <v>       0.44444444       0.22222222       0.22222222 </v>
   <v>      -0.44444444       0.22222222       0.22222222 </v>
   <v>      -0.33333333       0.22222222       0.22222222 </v>
   <v>      -0.22222222       0.22222222       0.22222222 </v>
   <v>       0.33333333       0.33333333       0.22222222 </v>
   <v>       0.44444444       0.33333333       0.22222222 </v>
   <v>      -0.44444444       0.33333333       0.22222222 </v>
   <v>      -0.33333333       0.33333333       0.22222222 </v>
   <v>      -0.22222222       0.33333333       0.22222222 </v>
   <v>       0.44444444       0.44444444       0.22222222 </v>
   <v>      -0.44444444       0.44444444       0.22222222 </v>
   <v>      -0.33333333       0.44444444       0.22222222 </v>
   <v>      -0.22222222       0.44444444       0.22222222 </v>
   <v>      -0.44444444      -0.44444444       0.22222222 </v>
   <v>      -0.33333333      -0.44444444       0.22222222 </v>
   <v>      -0.33333333      -0.33333333       0.22222222 </v>
   <v>       0.33333333       0.33333333       0.33333333 </v>
   <v>       0.44444444       0.33333333       0.33333333 </v>
   <v>      -0.44444444       0.33333333       0.33333333 </v>
   <v>      -0.33333333       0.33333333       0.33333333 </v>
   <v>       0.44444444       0.44444444       0.33333333 </v>
   <v>      -0.44444444       0.44444444       0.33333333 </v>
   <v>      -0.33333333       0.44444444       0.33333333 </v>
   <v>      -0.44444444      -0.44444444       0.33333333 </v>
   <v>       0.44444444       0.44444444       0.44444444 </v>
   <v>      -0.44444444       0.44444444       0.44444444 </v>
  </varray>
  <varray name="weights" >
   <v>       0.00137174 </v>
   <v>       0.00823045 </v>
   <v>       0.00823045 </v>
   <v>       0.00823045 </v>
   <v>       0.00823045 </v>
   <v>       0.00823045 </v>
   <v>       0.01646091 </v>
   <v>       0.01646091 </v>
   <v>       0.01646091 </v>
   <v>       0.01646091 </v>
   <v>       0.01646091 </v>
   <v>       0.01646091 </v>
   <v>       0.00823045 </v>
   <v>       0.00823045 </v>
   <v>       0.01646091 </v>
   <v>       0.01646091 </v>
   <v>       0.01646091 </v>
   <v>       0.01646091 </v>
   <v>       0.00823045 </v>
   <v>       0.00823045 </v>
   <v>       0.01646091 </v>
   <v>       0.01646091 </v>
   <v>       0.00823045 </v>
   <v>       0.00823045 </v>
   <v>       0.00823045 </v>
   <v>       0.00274348 </v>
   <v>       0.00823045 </v>
   <v>       0.00823045 </v>
   <v>       0.00823045 </v>
   <v>       0.00823045 </v>
   <v>       0.00823045 </v>
   <v>       0.00823045 </v>
   <v>       0.00823045 </v>
   <v>       0.00823045 </v>
   <v>       0.01646091 </v>
   <v>       0.01646091 </v>
   <v>       0.01646091 </v>
   <v>       0.01646091 </v>
   <v>       0.01646091 </v>
   <v>       0.01646091 </v>
   <v>       0.00823045 </v>
   <v>       0.01646091 </v>
   <v>       0.01646091 </v>
   <v>       0.01646091 </v>
   <v>       0.01646091 </v>
   <v>       0.01646091 </v>
   <v>       0.00823045 </v>
   <v>       0.01646091 </v>
   <v>       0.01646091 </v>
   <v>       0.01646091 </v>
   <v>       0.01646091 </v>
   <v>       0.00823045 </v>
   <v>       0.01646091 </v>
   <v>       0.01646091 </v>
   <v>       0.00823045 </v>
   <v>       0.01646091 </v>
   <v>       0.00823045 </v>
   <v>       0.00274348 </v>
   <v>       0.00823045 </v>
   <v>       0.00823045 </v>
   <v>       0.00823045 </v>
   <v>       0.00823045 </v>
   <v>       0.00823045 </v>
   <v>       0.00823045 </v>
   <v>       0.01646091 </v>
   <v>       0.01646091 </v>
   <v>       0.01646091 </v>
   <v>       0.01646091 </v>
   <v>       0.00823045 </v>
   <v>       0.01646091 </v>
   <v>       0.01646091 </v>
   <v>       0.01646091 </v>
   <v>       0.00823045 </v>
   <v>       0.01646091 </v>
   <v>       0.00823045 </v>
   <v>       0.00274348 </v>
   <v>       0.00823045 </v>
   <v>       0.00823045 </v>
   <v>       0.00823045 </v>
   <v>       0.00823045 </v>
   <v>       0.01646091 </v>
   <v>       0.01646091 </v>
   <v>       0.00823045 </v>
   <v>       0.00274348 </v>
   <v>       0.00823045 </v>
  </varray>
  <varray name="tetrahedronlist"  type="int" >
   <v type="int" >       12        1        2        6       26 </v>
   <v type="int" >       12        2        6        7       27 </v>
   <v type="int" >       12        2        3        7       27 </v>
   <v type="int" >       12        2        6       26       27 </v>
   <v type="int" >       12        3        7        8       28 </v>
   <v type="int" >       12        3        4        8       28 </v>
   <v type="int" >       12        3        7       27       28 </v>
   <v type="int" >       12        4        8        9       29 </v>
   <v type="int" >       12        4        5        9       29 </v>
   <v type="int" >       12        4        8       28       29 </v>
   <v type="int" >       12        5        9       10       30 </v>
   <v type="int" >       12        5        5       10       30 </v>
   <v type="int" >       12        5        9       29       30 </v>
   <v type="int" >       12        5       10       11       31 </v>
   <v type="int" >       12        4        5       11       31 </v>
   <v type="int" >       12        5       10       30       31 </v>
   <v type="int" >       12        4       11       12       32 </v>
   <v type="int" >       12        3        4       12       32 </v>
   <v type="int" >       12        4       11       31       32 </v>
   <v type="int" >       12        3       12       13       33 </v>
   <v type="int" >       12        2        3       13       33 </v>
   <v type="int" >       12        3       12       32       33 </v>
   <v type="int" >       12        2        2        6       13 </v>
   <v type="int" >       12        1        2        2        6 </v>
   <v type="int" >       12        2        6       13       33 </v>
   <v type="int" >       12        6        7       14       34 </v>
   <v type="int" >       12        6        7       27       34 </v>
   <v type="int" >       12        6       26       27       34 </v>
   <v type="int" >       12        7       14       15       35 </v>
   <v type="int" >       12        7        8       15       35 </v>
   <v type="int" >       12        7        8       28       35 </v>
   <v type="int" >       12        7       14       34       35 </v>
   <v type="int" >       12        7       27       34       35 </v>
   <v type="int" >       12        7       27       28       35 </v>
   <v type="int" >       12        8       15       16       36 </v>
   <v type="int" >       12        8        9       16       36 </v>
   <v type="int" >       12        8        9       29       36 </v>
   <v type="int" >       12        8       15       35       36 </v>
   <v type="int" >       12        8       28       35       36 </v>
   <v type="int" >       12        8       28       29       36 </v>
   <v type="int" >       12        9       16       17       37 </v>
   <v type="int" >       12        9       10       17       37 </v>
   <v type="int" >       12        9       10       30       37 </v>
   <v type="int" >       12        9       16       36       37 </v>
   <v type="int" >       12        9       29       36       37 </v>
   <v type="int" >       12        9       29       30       37 </v>
   <v type="int" >       12       10       17       18       38 </v>
   <v type="int" >       12       10       11       18       38 </v>
   <v type="int" >       12       10       11       31       38 </v>
   <v type="int" >       12       10       17       37       38 </v>
   <v type="int" >       12       10       30       37       38 </v>
   <v type="int" >       12       10       30       31       38 </v>
   <v type="int" >       12       11       18       19       39 </v>
   <v type="int" >       12       11       12       19       39 </v>
   <v type="int" >       12       11       12       32       39 </v>
   <v type="int" >       12       11       18       38       39 </v>
   <v type="int" >       12       11       31       38       39 </v>
   <v type="int" >       12       11       31       32       39 </v>
   <v type="int" >       12       12       12       19       40 </v>
   <v type="int" >       12       12       12       13       40 </v>
   <v type="int" >       12       12       13       33       40 </v>
   <v type="int" >       12       12       19       39       40 </v>
   <v type="int" >       12       12       32       39       40 </v>
   <v type="int" >       12       12       32       33       40 </v>
   <v type="int" >       12        3        7       12       13 </v>
   <v type="int" >       12        2        3        7       13 </v>
   <v type="int" >       12        2        6        7       13 </v>
   <v type="int" >       12        7       12       13       40 </v>
   <v type="int" >       12        7       13       33       40 </v>
   <v type="int" >       12        6        7       13       33 </v>
   <v type="int" >       12       14       15       20       41 </v>
   <v type="int" >       12       14       15       35       41 </v>
   <v type="int" >       12       14       34       35       41 </v>
   <v type="int" >       12       15       20       21       42 </v>
   <v type="int" >       12       15       16       21       42 </v>
   <v type="int" >       12       15       16       36       42 </v>
   <v type="int" >       12       15       20       41       42 </v>
   <v type="int" >       12       15       35       41       42 </v>
   <v type="int" >       12       15       35       36       42 </v>
   <v type="int" >       12       16       21       22       43 </v>
   <v type="int" >       12       16       17       22       43 </v>
   <v type="int" >       12       16       17       37       43 </v>
   <v type="int" >       12       16       21       42       43 </v>
   <v type="int" >       12       16       36       42       43 </v>
   <v type="int" >       12       16       36       37       43 </v>
   <v type="int" >       12       17       22       23       44 </v>
   <v type="int" >       12       17       18       23       44 </v>
   <v type="int" >       12       17       18       38       44 </v>
   <v type="int" >       12       17       22       43       44 </v>
   <v type="int" >       12       17       37       43       44 </v>
   <v type="int" >       12       17       37       38       44 </v>
   <v type="int" >       12       18       18       23       45 </v>
   <v type="int" >       12       18       18       19       45 </v>
   <v type="int" >       12       18       19       39       45 </v>
   <v type="int" >       12       18       23       44       45 </v>
   <v type="int" >       12       18       38       44       45 </v>
   <v type="int" >       12       18       38       39       45 </v>
   <v type="int" >       12       11       18       19       46 </v>
   <v type="int" >       12       11       12       19       46 </v>
   <v type="int" >       12       12       19       40       46 </v>
   <v type="int" >       12       18       19       45       46 </v>
   <v type="int" >       12       19       39       45       46 </v>
   <v type="int" >       12       19       39       40       46 </v>
   <v type="int" >       12        4        8       11       12 </v>
   <v type="int" >       12        3        4        8       12 </v>
   <v type="int" >       12        3        7        8       12 </v>
   <v type="int" >       12        8       11       12       46 </v>
   <v type="int" >       12        8       12       40       46 </v>
   <v type="int" >       12        7        8       12       40 </v>
   <v type="int" >       12       20       21       24       47 </v>
   <v type="int" >       12       20       21       42       47 </v>
   <v type="int" >       12       20       41       42       47 </v>
   <v type="int" >       12       21       24       25       48 </v>
   <v type="int" >       12       21       22       25       48 </v>
   <v type="int" >       12       21       22       43       48 </v>
   <v type="int" >       12       21       24       47       48 </v>
   <v type="int" >       12       21       42       47       48 </v>
   <v type="int" >       12       21       42       43       48 </v>
   <v type="int" >       12       22       22       25       49 </v>
   <v type="int" >       12       22       22       23       49 </v>
   <v type="int" >       12       22       23       44       49 </v>
   <v type="int" >       12       22       25       48       49 </v>
   <v type="int" >       12       22       43       48       49 </v>
   <v type="int" >       12       22       43       44       49 </v>
   <v type="int" >       12       17       22       23       50 </v>
   <v type="int" >       12       17       18       23       50 </v>
   <v type="int" >       12       18       23       45       50 </v>
   <v type="int" >       12       22       23       49       50 </v>
   <v type="int" >       12       23       44       49       50 </v>
   <v type="int" >       12       23       44       45       50 </v>
   <v type="int" >       12       10       17       18       51 </v>
   <v type="int" >       12       10       11       18       51 </v>
   <v type="int" >       12       11       18       46       51 </v>
   <v type="int" >       12       17       18       50       51 </v>
   <v type="int" >       12       18       45       50       51 </v>
   <v type="int" >       12       18       45       46       51 </v>
   <v type="int" >       12        5        9       10       11 </v>
   <v type="int" >       12        4        5        9       11 </v>
   <v type="int" >       12        4        8        9       11 </v>
   <v type="int" >       12        9       10       11       51 </v>
   <v type="int" >       12        9       11       46       51 </v>
   <v type="int" >       12        8        9       11       46 </v>
   <v type="int" >       12       24       24       25       52 </v>
   <v type="int" >       12       24       25       48       52 </v>
   <v type="int" >       12       24       47       48       52 </v>
   <v type="int" >       12       21       24       25       53 </v>
   <v type="int" >       12       21       22       25       53 </v>
   <v type="int" >       12       22       25       49       53 </v>
   <v type="int" >       12       24       25       52       53 </v>
   <v type="int" >       12       25       48       52       53 </v>
   <v type="int" >       12       25       48       49       53 </v>
   <v type="int" >       12       16       21       22       54 </v>
   <v type="int" >       12       16       17       22       54 </v>
   <v type="int" >       12       17       22       50       54 </v>
   <v type="int" >       12       21       22       53       54 </v>
   <v type="int" >       12       22       49       53       54 </v>
   <v type="int" >       12       22       49       50       54 </v>
   <v type="int" >       12        9       16       17       51 </v>
   <v type="int" >       12        9       10       17       51 </v>
   <v type="int" >       12       10       17       51       51 </v>
   <v type="int" >       12       16       17       51       54 </v>
   <v type="int" >       12       17       50       51       54 </v>
   <v type="int" >       12       17       50       51       51 </v>
   <v type="int" >       12        5        9       10       10 </v>
   <v type="int" >        6        5        5       10       10 </v>
   <v type="int" >       12        9       10       10       51 </v>
   <v type="int" >        6       10       10       51       51 </v>
   <v type="int" >       12       20       21       24       55 </v>
   <v type="int" >       12       21       24       53       55 </v>
   <v type="int" >       12       24       52       53       55 </v>
   <v type="int" >       12       15       20       21       56 </v>
   <v type="int" >       12       15       16       21       56 </v>
   <v type="int" >       12       16       21       54       56 </v>
   <v type="int" >       12       20       21       55       56 </v>
   <v type="int" >       12       21       53       55       56 </v>
   <v type="int" >       12       21       53       54       56 </v>
   <v type="int" >       12        8       15       16       46 </v>
   <v type="int" >       12        8        9       16       46 </v>
   <v type="int" >       12        9       16       46       51 </v>
   <v type="int" >       12       15       16       46       56 </v>
   <v type="int" >       12       16       46       54       56 </v>
   <v type="int" >       12       16       46       51       54 </v>
   <v type="int" >       12       14       15       20       57 </v>
   <v type="int" >       12       15       20       56       57 </v>
   <v type="int" >       12       20       55       56       57 </v>
   <v type="int" >       12        7       14       15       40 </v>
   <v type="int" >       12        7        8       15       40 </v>
   <v type="int" >       12        8       15       40       46 </v>
   <v type="int" >       12       14       15       40       57 </v>
   <v type="int" >       12       15       40       56       57 </v>
   <v type="int" >       12       15       40       46       56 </v>
   <v type="int" >       12        6        7       14       33 </v>
   <v type="int" >       12        7       14       33       40 </v>
   <v type="int" >       12       14       33       40       57 </v>
   <v type="int" >       12       26       27       34       58 </v>
   <v type="int" >       12       27       34       35       59 </v>
   <v type="int" >       12       27       28       35       59 </v>
   <v type="int" >       12       27       34       58       59 </v>
   <v type="int" >       12       28       35       36       60 </v>
   <v type="int" >       12       28       29       36       60 </v>
   <v type="int" >       12       28       35       59       60 </v>
   <v type="int" >       12       29       36       37       61 </v>
   <v type="int" >       12       29       30       37       61 </v>
   <v type="int" >       12       29       36       60       61 </v>
   <v type="int" >       12       30       37       38       62 </v>
   <v type="int" >       12       30       31       38       62 </v>
   <v type="int" >       12       30       37       61       62 </v>
   <v type="int" >       12       31       38       39       63 </v>
   <v type="int" >       12       31       32       39       63 </v>
   <v type="int" >       12       31       38       62       63 </v>
   <v type="int" >       12       32       39       40       57 </v>
   <v type="int" >       12       32       33       40       57 </v>
   <v type="int" >       12       32       39       57       63 </v>
   <v type="int" >       12       34       35       41       64 </v>
   <v type="int" >       12       34       35       59       64 </v>
   <v type="int" >       12       34       58       59       64 </v>
   <v type="int" >       12       35       41       42       65 </v>
   <v type="int" >       12       35       36       42       65 </v>
   <v type="int" >       12       35       36       60       65 </v>
   <v type="int" >       12       35       41       64       65 </v>
   <v type="int" >       12       35       59       64       65 </v>
   <v type="int" >       12       35       59       60       65 </v>
   <v type="int" >       12       36       42       43       66 </v>
   <v type="int" >       12       36       37       43       66 </v>
   <v type="int" >       12       36       37       61       66 </v>
   <v type="int" >       12       36       42       65       66 </v>
   <v type="int" >       12       36       60       65       66 </v>
   <v type="int" >       12       36       60       61       66 </v>
   <v type="int" >       12       37       43       44       67 </v>
   <v type="int" >       12       37       38       44       67 </v>
   <v type="int" >       12       37       38       62       67 </v>
   <v type="int" >       12       37       43       66       67 </v>
   <v type="int" >       12       37       61       66       67 </v>
   <v type="int" >       12       37       61       62       67 </v>
   <v type="int" >       12       38       44       45       68 </v>
   <v type="int" >       12       38       39       45       68 </v>
   <v type="int" >       12       38       39       63       68 </v>
   <v type="int" >       12       38       44       67       68 </v>
   <v type="int" >       12       38       62       67       68 </v>
   <v type="int" >       12       38       62       63       68 </v>
   <v type="int" >       12       39       45       46       56 </v>
   <v type="int" >       12       39       40       46       56 </v>
   <v type="int" >       12       39       40       56       57 </v>
   <v type="int" >       12       39       45       56       68 </v>
   <v type="int" >       12       39       56       63       68 </v>
   <v type="int" >       12       39       56       57       63 </v>
   <v type="int" >       12       41       42       47       69 </v>
   <v type="int" >       12       41       42       65       69 </v>
   <v type="int" >       12       41       64       65       69 </v>
   <v type="int" >       12       42       47       48       70 </v>
   <v type="int" >       12       42       43       48       70 </v>
   <v type="int" >       12       42       43       66       70 </v>
   <v type="int" >       12       42       47       69       70 </v>
   <v type="int" >       12       42       65       69       70 </v>
   <v type="int" >       12       42       65       66       70 </v>
   <v type="int" >       12       43       48       49       71 </v>
   <v type="int" >       12       43       44       49       71 </v>
   <v type="int" >       12       43       44       67       71 </v>
   <v type="int" >       12       43       48       70       71 </v>
   <v type="int" >       12       43       66       70       71 </v>
   <v type="int" >       12       43       66       67       71 </v>
   <v type="int" >       12       44       49       50       72 </v>
   <v type="int" >       12       44       45       50       72 </v>
   <v type="int" >       12       44       45       68       72 </v>
   <v type="int" >       12       44       49       71       72 </v>
   <v type="int" >       12       44       67       71       72 </v>
   <v type="int" >       12       44       67       68       72 </v>
   <v type="int" >       12       45       50       51       54 </v>
   <v type="int" >       12       45       46       51       54 </v>
   <v type="int" >       12       45       46       54       56 </v>
   <v type="int" >       12       45       50       54       72 </v>
   <v type="int" >       12       45       54       68       72 </v>
   <v type="int" >       12       45       54       56       68 </v>
   <v type="int" >       12       47       48       52       73 </v>
   <v type="int" >       12       47       48       70       73 </v>
   <v type="int" >       12       47       69       70       73 </v>
   <v type="int" >       12       48       52       53       74 </v>
   <v type="int" >       12       48       49       53       74 </v>
   <v type="int" >       12       48       49       71       74 </v>
   <v type="int" >       12       48       52       73       74 </v>
   <v type="int" >       12       48       70       73       74 </v>
   <v type="int" >       12       48       70       71       74 </v>
   <v type="int" >       12       49       53       54       72 </v>
   <v type="int" >       12       49       50       54       72 </v>
   <v type="int" >       12       49       50       72       72 </v>
   <v type="int" >       12       49       53       72       74 </v>
   <v type="int" >       12       49       71       72       74 </v>
   <v type="int" >       12       49       71       72       72 </v>
   <v type="int" >       12       50       50       51       54 </v>
   <v type="int" >        6       50       50       51       51 </v>
   <v type="int" >       12       50       50       54       72 </v>
   <v type="int" >        6       50       50       72       72 </v>
   <v type="int" >       12       52       53       55       75 </v>
   <v type="int" >       12       52       53       74       75 </v>
   <v type="int" >       12       52       73       74       75 </v>
   <v type="int" >       12       53       55       56       68 </v>
   <v type="int" >       12       53       54       56       68 </v>
   <v type="int" >       12       53       54       68       72 </v>
   <v type="int" >       12       53       55       68       75 </v>
   <v type="int" >       12       53       68       74       75 </v>
   <v type="int" >       12       53       68       72       74 </v>
   <v type="int" >       12       55       56       57       63 </v>
   <v type="int" >       12       55       56       63       68 </v>
   <v type="int" >       12       55       63       68       75 </v>
   <v type="int" >       12       58       59       64       76 </v>
   <v type="int" >       12       59       64       65       77 </v>
   <v type="int" >       12       59       60       65       77 </v>
   <v type="int" >       12       59       64       76       77 </v>
   <v type="int" >       12       60       65       66       78 </v>
   <v type="int" >       12       60       61       66       78 </v>
   <v type="int" >       12       60       65       77       78 </v>
   <v type="int" >       12       61       66       67       79 </v>
   <v type="int" >       12       61       62       67       79 </v>
   <v type="int" >       12       61       66       78       79 </v>
   <v type="int" >       12       62       67       68       75 </v>
   <v type="int" >       12       62       63       68       75 </v>
   <v type="int" >       12       62       67       75       79 </v>
   <v type="int" >       12       64       65       69       80 </v>
   <v type="int" >       12       64       65       77       80 </v>
   <v type="int" >       12       64       76       77       80 </v>
   <v type="int" >       12       65       69       70       81 </v>
   <v type="int" >       12       65       66       70       81 </v>
   <v type="int" >       12       65       66       78       81 </v>
   <v type="int" >       12       65       69       80       81 </v>
   <v type="int" >       12       65       77       80       81 </v>
   <v type="int" >       12       65       77       78       81 </v>
   <v type="int" >       12       66       70       71       82 </v>
   <v type="int" >       12       66       67       71       82 </v>
   <v type="int" >       12       66       67       79       82 </v>
   <v type="int" >       12       66       70       81       82 </v>
   <v type="int" >       12       66       78       81       82 </v>
   <v type="int" >       12       66       78       79       82 </v>
   <v type="int" >       12       67       71       72       74 </v>
   <v type="int" >       12       67       68       72       74 </v>
   <v type="int" >       12       67       68       74       75 </v>
   <v type="int" >       12       67       71       74       82 </v>
   <v type="int" >       12       67       74       79       82 </v>
   <v type="int" >       12       67       74       75       79 </v>
   <v type="int" >       12       69       70       73       83 </v>
   <v type="int" >       12       69       70       81       83 </v>
   <v type="int" >       12       69       80       81       83 </v>
   <v type="int" >       12       70       73       74       82 </v>
   <v type="int" >       12       70       71       74       82 </v>
   <v type="int" >       12       70       71       82       82 </v>
   <v type="int" >       12       70       73       82       83 </v>
   <v type="int" >       12       70       81       82       83 </v>
   <v type="int" >       12       70       81       82       82 </v>
   <v type="int" >       12       71       71       72       74 </v>
   <v type="int" >        6       71       71       72       72 </v>
   <v type="int" >       12       71       71       74       82 </v>
   <v type="int" >        6       71       71       82       82 </v>
   <v type="int" >       12       73       74       75       79 </v>
   <v type="int" >       12       73       74       79       82 </v>
   <v type="int" >       12       73       79       82       83 </v>
   <v type="int" >       12       76       77       80       84 </v>
   <v type="int" >       12       77       80       81       85 </v>
   <v type="int" >       12       77       78       81       85 </v>
   <v type="int" >       12       77       80       84       85 </v>
   <v type="int" >       12       78       81       82       83 </v>
   <v type="int" >       12       78       79       82       83 </v>
   <v type="int" >       12       78       81       83       85 </v>
   <v type="int" >       12       80       81       83       85 </v>
   <v type="int" >       12       80       81       85       85 </v>
   <v type="int" >       12       80       84       85       85 </v>
   <v type="int" >       12       81       81       82       83 </v>
   <v type="int" >        6       81       81       82       82 </v>
   <v type="int" >       12       81       81       83       85 </v>
   <v type="int" >        6       81       81       85       85 </v>
   <v type="int" >        6       84       84       85       85 </v>
  </varray>
  <i name="volumeweight">      0.00022862 </i>
 </kpoints>
 <parameters>
  <separator name="general" >
   <i type="string" name="SYSTEM">unknown system</i>
   <i type="logical" name="LCOMPAT"> F  </i>
  </separator>
  <separator name="electronic" >
   <i type="string" name="PREC">accura</i>
   <i name="ENMAX">    500.00000000</i>
   <i name="ENAUG">    446.84200000</i>
   <i name="EDIFF">      0.00000500</i>
   <i type="int" name="IALGO">    38</i>
   <i type="int" name="IWAVPR">    11</i>
   <i type="int" name="NBANDS">    32</i>
   <i name="NELECT">     48.00000000</i>
   <i type="int" name="TURBO">     0</i>
   <i type="int" name="IRESTART">     0</i>
   <i type="int" name="NREBOOT">     0</i>
   <i type="int" name="NMIN">     0</i>
   <i name="EREF">      0.00000000</i>
   <separator name="electronic smearing" >
    <i type="int" name="ISMEAR">    -5</i>
    <i name="SIGMA">      0.05000000</i>
    <i name="KSPACING">      0.50000000</i>
    <i type="logical" name="KGAMMA"> T  </i>
   </separator>
   <separator name="electronic projectors" >
    <i type="logical" name="LREAL"> F  </i>
    <v name="ROPT">      0.00000000      0.00000000</v>
    <i type="int" name="LMAXPAW">  -100</i>
    <i type="int" name="LMAXMIX">     4</i>
    <i type="logical" name="NLSPLINE"> F  </i>
   </separator>
   <separator name="electronic startup" >
    <i type="int" name="ISTART">     1</i>
    <i type="int" name="ICHARG">     0</i>
    <i type="int" name="INIWAV">     1</i>
   </separator>
   <separator name="electronic spin" >
    <i type="int" name="ISPIN">     1</i>
    <i type="logical" name="LNONCOLLINEAR"> F  </i>
    <v name="MAGMOM">      1.00000000      1.00000000      1.00000000      1.00000000      1.00000000</v>
    <i name="NUPDOWN">     -1.00000000</i>
    <i type="logical" name="LSORBIT"> F  </i>
    <v name="SAXIS">      0.00000000      0.00000000      1.00000000</v>
    <i type="logical" name="LSPIRAL"> F  </i>
    <v name="QSPIRAL">      0.00000000      0.00000000      0.00000000</v>
    <i type="logical" name="LZEROZ"> F  </i>
   </separator>
   <separator name="electronic exchange-correlation" >
    <i type="logical" name="LASPH"> T  </i>
    <i type="logical" name="LMETAGGA"> F  </i>
   </separator>
   <separator name="electronic convergence" >
    <i type="int" name="NELM">    60</i>
    <i type="int" name="NELMDL">     0</i>
    <i type="int" name="NELMIN">     4</i>
    <i name="ENINI">    500.00000000</i>
    <separator name="electronic convergence detail" >
     <i type="logical" name="LDIAG"> T  </i>
     <i type="logical" name="LSUBROT"> F  </i>
     <i name="WEIMIN">      0.00100000</i>
     <i name="EBREAK">      0.00000004</i>
     <i name="DEPER">      0.30000000</i>
     <i type="int" name="NRMM">     4</i>
     <i name="TIME">      0.40000000</i>
    </separator>
   </separator>
   <separator name="electronic mixer" >
    <i name="AMIX">      0.40000000</i>
    <i name="BMIX">      1.00000000</i>
    <i name="AMIN">      0.10000000</i>
    <i name="AMIX_MAG">      1.60000000</i>
    <i name="BMIX_MAG">      1.00000000</i>
    <separator name="electronic mixer details" >
     <i type="int" name="IMIX">     4</i>
     <i type="logical" name="MIXFIRST"> F  </i>
     <i type="int" name="MAXMIX">   -45</i>
     <i name="WC">    100.00000000</i>
     <i type="int" name="INIMIX">     1</i>
     <i type="int" name="MIXPRE">     1</i>
     <i type="int" name="MREMOVE">     5</i>
    </separator>
   </separator>
   <separator name="electronic dipolcorrection" >
    <i type="logical" name="LDIPOL"> F  </i>
    <i type="logical" name="LMONO"> F  </i>
    <i type="int" name="IDIPOL">     0</i>
    <i name="EPSILON">      1.00000000</i>
    <v name="DIPOL">   -100.00000000   -100.00000000   -100.00000000</v>
    <i name="EFIELD">      0.00000000</i>
   </separator>
  </separator>
  <separator name="grids" >
   <i type="int" name="NGX">    80</i>
   <i type="int" name="NGY">    80</i>
   <i type="int" name="NGZ">    80</i>
   <i type="int" name="NGXF">   160</i>
   <i type="int" name="NGYF">   160</i>
   <i type="int" name="NGZF">   160</i>
   <i type="logical" name="ADDGRID"> F  </i>
  </separator>
  <separator name="ionic" >
   <i type="int" name="NSW">     1</i>
   <i type="int" name="IBRION">     8</i>
   <i type="int" name="MDALGO">     0</i>
   <i type="int" name="ISIF">     3</i>
   <i name="PSTRESS">      0.00000000</i>
   <i name="EDIFFG">      0.00005000</i>
   <i type="int" name="NFREE">     0</i>
   <i name="POTIM">      0.20000000</i>
   <i name="SMASS">     -3.00000000</i>
   <i name="SCALEE">      1.00000000</i>
  </separator>
  <separator name="ionic md" >
   <i name="TEBEG">      0.00010000</i>
   <i name="TEEND">      0.00010000</i>
   <i type="int" name="NBLOCK">     1</i>
   <i type="int" name="KBLOCK">     1</i>
   <i type="int" name="NPACO">   256</i>
   <i name="APACO">     16.00000000</i>
  </separator>
  <separator name="symmetry" >
   <i type="int" name="ISYM">     2</i>
   <i name="SYMPREC">      0.00001000</i>
  </separator>
  <separator name="dos" >
   <i type="int" name="LORBIT">     0</i>
   <v name="RWIGS">     -1.00000000     -1.00000000</v>
   <i type="int" name="NEDOS">   301</i>
   <i name="EMIN">     10.00000000</i>
   <i name="EMAX">    -10.00000000</i>
   <i name="EFERMI">      0.00000000</i>
  </separator>
  <separator name="writing" >
   <i type="int" name="NWRITE">     2</i>
   <i type="logical" name="LWAVE"> T  </i>
   <i type="logical" name="LDOWNSAMPLE"> F  </i>
   <i type="logical" name="LCHARG"> T  </i>
   <i type="logical" name="LPARD"> F  </i>
   <i type="logical" name="LVTOT"> F  </i>
   <i type="logical" name="LVHAR"> F  </i>
   <i type="logical" name="LELF"> F  </i>
   <i type="logical" name="LOPTICS"> F  </i>
   <v name="STM">      0.00000000      0.00000000      0.00000000      0.00000000      0.00000000      0.00000000      0.00000000</v>
  </separator>
  <separator name="performance" >
   <i type="int" name="NPAR">     8</i>
   <i type="int" name="NSIM">     4</i>
   <i type="int" name="NBLK">    -1</i>
   <i type="logical" name="LPLANE"> T  </i>
   <i type="logical" name="LSCALAPACK"> F  </i>
   <i type="logical" name="LSCAAWARE"> F  </i>
   <i type="logical" name="LSCALU"> T  </i>
   <i type="logical" name="LASYNC"> F  </i>
   <i type="logical" name="LORBITALREAL"> F  </i>
  </separator>
  <separator name="miscellaneous" >
   <i type="int" name="IDIOT">     3</i>
   <i type="int" name="ISPECIAL">     0</i>
   <i type="logical" name="LMUSIC"> F  </i>
   <v name="POMASS">    208.98000000     78.96000000</v>
   <v name="DARWINR">      0.00000000      0.00000000</v>
   <v name="DARWINV">      1.00000000      1.00000000</v>
   <i type="logical" name="LCORR"> T  </i>
  </separator>
  <i type="logical" name="GGA_COMPAT"> T  </i>
  <i type="logical" name="LBERRY"> F  </i>
  <i type="int" name="ICORELEVEL">     0</i>
  <i type="logical" name="LDAU"> F  </i>
  <i type="int" name="I_CONSTRAINED_M">     0</i>
  <separator name="electronic exchange-correlation" >
   <i type="string" name="GGA">--</i>
   <i type="int" name="VOSKOWN">     0</i>
   <i type="logical" name="LHFCALC"> F  </i>
   <i type="string" name="PRECFOCK"></i>
   <i type="logical" name="LSYMGRAD"> F  </i>
   <i type="logical" name="LHFONE"> F  </i>
   <i type="logical" name="LRHFCALC"> F  </i>
   <i type="logical" name="LTHOMAS"> F  </i>
   <i type="logical" name="LMODELHF"> F  </i>
   <i name="ENCUT4O">     -1.00000000</i>
   <i type="int" name="EXXOEP">     0</i>
   <i type="int" name="FOURORBIT">     0</i>
   <i name="AEXX">      0.00000000</i>
   <i name="HFALPHA">      0.00000000</i>
   <i name="MCALPHA">      0.00000000</i>
   <i name="ALDAX">      1.00000000</i>
   <i name="AGGAX">      1.00000000</i>
   <i name="ALDAC">      1.00000000</i>
   <i name="AGGAC">      1.00000000</i>
   <i type="int" name="NKREDX">     1</i>
   <i type="int" name="NKREDY">     1</i>
   <i type="int" name="NKREDZ">     1</i>
   <i type="logical" name="SHIFTRED"> F  </i>
   <i type="logical" name="ODDONLY"> F  </i>
   <i type="logical" name="EVENONLY"> F  </i>
   <i type="int" name="LMAXFOCK">     0</i>
   <i type="int" name="NMAXFOCKAE">     0</i>
   <i type="logical" name="LFOCKAEDFT"> F  </i>
   <i name="HFSCREEN">      0.00000000</i>
   <i name="HFSCREENC">      0.00000000</i>
   <i type="int" name="NBANDSGWLOW">     0</i>
  </separator>
  <separator name="vdW DFT" >
   <i type="logical" name="LUSE_VDW"> F  </i>
   <i name="Zab_VDW">     -0.84910000</i>
   <i name="PARAM1">      0.12340000</i>
   <i name="PARAM2">      1.00000000</i>
   <i name="PARAM3">      0.00000000</i>
  </separator>
  <separator name="model GW" >
   <i type="int" name="MODEL_GW">     0</i>
   <i name="MODEL_EPS0">     18.93238711</i>
   <i name="MODEL_ALPHA">      1.00000000</i>
  </separator>
  <separator name="linear response parameters" >
   <i type="logical" name="LEPSILON"> T  </i>
   <i type="logical" name="LRPA"> F  </i>
   <i type="logical" name="LNABLA"> F  </i>
   <i type="logical" name="LVEL"> F  </i>
   <i type="int" name="KINTER">     0</i>
   <i name="CSHIFT">      0.10000000</i>
   <i name="OMEGAMAX">     -1.00000000</i>
   <i name="DEG_THRESHOLD">      0.00200000</i>
   <i name="RTIME">     -0.10000000</i>
   <i name="WPLASMAI">      0.00000000</i>
   <v name="DFIELD">      0.00000000      0.00000000      0.00000000</v>
   <v name="WPLASMA">      0.00000000      0.00000000      0.00000000      0.00000000      0.00000000      0.00000000      0.00000000      0.00000000      0.00000000</v>
  </separator>
  <separator name="orbital magnetization" >
   <i type="logical" name="NUCIND"> F  </i>
   <v name="MAGPOS">      0.00000000      0.00000000      0.00000000</v>
   <i type="logical" name="LNICSALL"> T  </i>
   <i type="logical" name="ORBITALMAG"> F  </i>
   <i type="logical" name="LMAGBLOCH"> F  </i>
   <i type="logical" name="LCHIMAG"> F  </i>
   <i type="logical" name="LGAUGE"> T  </i>
   <i type="int" name="MAGATOM">     0</i>
   <v name="MAGDIPOL">      0.00000000      0.00000000      0.00000000</v>
   <v name="AVECCONST">      0.00000000      0.00000000      0.00000000</v>
  </separator>
  <separator name="response functions" >
   <i type="logical" name="LADDER"> T  </i>
   <i type="logical" name="LRPAFORCE"> F  </i>
   <i type="logical" name="LFXC"> F  </i>
   <i type="logical" name="LHARTREE"> T  </i>
   <i type="int" name="IBSE">     0</i>
   <v type="int" name="KPOINT">    -1     0     0     0</v>
   <i type="logical" name="LTCTE"> F  </i>
   <i type="logical" name="LTETE"> F  </i>
   <i type="logical" name="LTRIPLET"> F  </i>
   <i type="logical" name="LFXCEPS"> F  </i>
   <i type="logical" name="LFXHEG"> F  </i>
   <i type="int" name="NATURALO">     2</i>
   <i type="logical" name="L2ORDER"> F  </i>
   <i type="logical" name="LMP2LT"> F  </i>
   <i type="logical" name="LUSEW"> F  </i>
   <i name="ENCUTGW">     -2.00000000</i>
   <i name="ENCUTGWSOFT">     -2.00000000</i>
   <i name="ENCUTLF">     -1.00000000</i>
   <i type="int" name="LMAXMP2">    -1</i>
   <i name="SCISSOR">      0.00000000</i>
   <i type="int" name="NOMEGA">     0</i>
   <i type="int" name="NOMEGAR">     0</i>
   <i type="int" name="NBANDSGW">    -1</i>
   <i type="int" name="NBANDSO">    -1</i>
   <i type="int" name="NBANDSV">    -1</i>
   <i type="int" name="NELM">     1</i>
   <i type="int" name="NELMHF">     1</i>
   <i type="int" name="DIM">     3</i>
   <i type="int" name="ANTIRES">     0</i>
   <i name="OMEGAMAX">    -30.00000000</i>
   <i name="OMEGAMIN">    -30.00000000</i>
   <i name="OMEGATL">   -200.00000000</i>
   <i type="int" name="OMEGAGRID">   140</i>
   <i name="CSHIFT">     -0.10000000</i>
   <i type="logical" name="SELFENERGY"> F  </i>
   <i type="logical" name="LSPECTRAL"> F  </i>
   <i type="logical" name="LSPECTRALGW"> F  </i>
   <i type="logical" name="LSINGLES"> F  </i>
   <i type="logical" name="LFERMIGW"> F  </i>
   <i type="logical" name="ODDONLYGW"> F  </i>
   <i type="logical" name="EVENONLYGW"> F  </i>
   <i type="int" name="NKREDLFX">     1</i>
   <i type="int" name="NKREDLFY">     1</i>
   <i type="int" name="NKREDLFZ">     1</i>
   <i type="int" name="MAXMEM">  2800</i>
   <i type="int" name="TELESCOPE">     0</i>
   <i type="int" name="TAUPAR">     1</i>
   <i type="int" name="OMEGAPAR">    -1</i>
   <i name="LAMBDA">      1.00000000</i>
  </separator>
  <separator name="External order field" >
   <i name="OFIELD_KAPPA">      0.00000000</i>
   <v name="OFIELD_K">      0.00000000      0.00000000      0.00000000</v>
   <i name="OFIELD_Q6_NEAR">      0.00000000</i>
   <i name="OFIELD_Q6_FAR">      0.00000000</i>
   <i name="OFIELD_A">      0.00000000</i>
  </separator>
 </parameters>
 <atominfo>
  <atoms>       5 </atoms>
  <types>       2 </types>
  <array name="atoms" >
   <dimension dim="1">ion</dimension>
   <field type="string">element</field>
   <field type="int">atomtype</field>
   <set>
    <rc><c>Bi</c><c>   1</c></rc>
    <rc><c>Bi</c><c>   1</c></rc>
    <rc><c>Se</c><c>   2</c></rc>
    <rc><c>Se</c><c>   2</c></rc>
    <rc><c>Se</c><c>   2</c></rc>
   </set>
  </array>
  <array name="atomtypes" >
   <dimension dim="1">type</dimension>
   <field type="int">atomspertype</field>
   <field type="string">element</field>
   <field>mass</field>
   <field>valence</field>
   <field type="string">pseudopotential</field>
   <set>
    <rc><c>   2</c><c>Bi</c><c>    208.98000000</c><c>     15.00000000</c><c>  PAW_PBE Bi_d 06Sep2000                </c></rc>
    <rc><c>   3</c><c>Se</c><c>     78.96000000</c><c>      6.00000000</c><c>  PAW_PBE Se 06Sep2000                  </c></rc>
   </set>
  </array>
 </atominfo>
 <structure name="initialpos" >
  <crystal>
   <varray name="basis" >
    <v>       2.41902100       0.00000000      10.37750536 </v>
    <v>      -1.20951050       2.09493364      10.37750536 </v>
    <v>      -1.20951050      -2.09493364      10.37750536 </v>
   </varray>
   <i name="volume">    157.76989256 </i>
   <varray name="rec_basis" >
    <v>       0.27559358       0.00000000       0.03212076 </v>
    <v>      -0.13779679       0.23867104       0.03212076 </v>
    <v>      -0.13779679      -0.23867104       0.03212076 </v>
   </varray>
  </crystal>
  <varray name="positions" >
   <v>       0.39599532       0.39599532       0.39599532 </v>
   <v>       0.60400468       0.60400468       0.60400468 </v>
   <v>       0.77956961       0.77956961       0.77956961 </v>
   <v>       0.22043039       0.22043039       0.22043039 </v>
   <v>       0.00000000       0.00000000       0.00000000 </v>
  </varray>
 </structure>
 <calculation>
  <scstep>
   <time name="dav">   37.37   37.47</time>
   <time name="total">   43.38   43.51</time>
   <energy>
    <i name="alphaZ">    122.56890491 </i>
    <i name="ewald">  -2988.22488284 </i>
    <i name="hartreedc">  -1607.47860656 </i>
    <i name="XCdc">     95.72107427 </i>
    <i name="pawpsdc">   4308.91607592 </i>
    <i name="pawaedc">  -4204.70704407 </i>
    <i name="eentropy">      0.00000000 </i>
    <i name="bandstr">   -436.81651096 </i>
    <i name="atom">   4689.78256949 </i>
    <i name="e_fr_energy">    -20.23841984 </i>
    <i name="e_wo_entrp">    -20.23841984 </i>
    <i name="e_0_energy">    -20.23841984 </i>
   </energy>
  </scstep>
  <scstep>
   <time name="dav">   42.08   42.22</time>
   <time name="total">   48.19   48.35</time>
   <energy>
    <i name="e_fr_energy">    -20.23841690 </i>
    <i name="e_wo_entrp">    -20.23841690 </i>
    <i name="e_0_energy">    -20.23841690 </i>
   </energy>
  </scstep>
  <scstep>
   <time name="dav">   34.37   34.47</time>
   <time name="total">   40.37   40.48</time>
   <energy>
    <i name="e_fr_energy">    -20.23841705 </i>
    <i name="e_wo_entrp">    -20.23841705 </i>
    <i name="e_0_energy">    -20.23841705 </i>
   </energy>
  </scstep>
  <scstep>
   <time name="dav">   38.41   38.54</time>
   <time name="total">   39.07   39.20</time>
   <energy>
    <i name="alphaZ">    122.56890491 </i>
    <i name="ewald">  -2988.22488284 </i>
    <i name="hartreedc">  -1607.49183645 </i>
    <i name="XCdc">     95.72082389 </i>
    <i name="pawpsdc">   4308.96350496 </i>
    <i name="pawaedc">  -4204.75587772 </i>
    <i name="eentropy">      0.00000000 </i>
    <i name="bandstr">   -436.80162331 </i>
    <i name="atom">   4689.78256949 </i>
    <i name="e_fr_energy">    -20.23841706 </i>
    <i name="e_wo_entrp">    -20.23841706 </i>
    <i name="e_0_energy">    -20.23841706 </i>
   </energy>
  </scstep>
  <structure>
   <crystal>
    <varray name="basis" >
     <v>       2.41902100       0.00000000      10.37750536 </v>
     <v>      -1.20951050       2.09493364      10.37750536 </v>
     <v>      -1.20951050      -2.09493364      10.37750536 </v>
    </varray>
    <i name="volume">    157.76989256 </i>
    <varray name="rec_basis" >
     <v>       0.27559358       0.00000000       0.03212076 </v>
     <v>      -0.13779679       0.23867104       0.03212076 </v>
     <v>      -0.13779679      -0.23867104       0.03212076 </v>
    </varray>
   </crystal>
   <varray name="positions" >
    <v>       0.39599532       0.39599532       0.39599532 </v>
    <v>       0.60400468       0.60400468       0.60400468 </v>
    <v>       0.77956961       0.77956961       0.77956961 </v>
    <v>       0.22043039       0.22043039       0.22043039 </v>
    <v>       0.00000000       0.00000000       0.00000000 </v>
   </varray>
  </structure>
  <varray name="forces" >
   <v>       0.00000000       0.00000000       0.00019689 </v>
   <v>      -0.00000000      -0.00000000      -0.00019689 </v>
   <v>      -0.00000000      -0.00000000      -0.00275813 </v>
   <v>       0.00000000       0.00000000       0.00275813 </v>
   <v>       0.00000000       0.00000000       0.00000000 </v>
  </varray>
  <varray name="stress" >
   <v>       0.04190563       0.00000000      -0.00000000 </v>
   <v>       0.00000000       0.04190563      -0.00000000 </v>
   <v>      -0.00000000      -0.00000000       0.01295046 </v>
  </varray>
  <energy>
   <i name="e_fr_energy">    -20.23841706 </i>
   <i name="e_wo_entrp">    -20.23841706 </i>
   <i name="e_0_energy">      0.00000000 </i>
  </energy>
  <scstep>
   <time name="total">   56.03   56.23</time>
   <energy>
    <i name="e_fr_energy">   -127.43197495 </i>
    <i name="e_wo_entrp">   -127.43197495 </i>
    <i name="e_0_energy">   -127.43197495 </i>
   </energy>
  </scstep>
  <scstep>
   <time name="total">   69.93   70.16</time>
   <energy>
    <i name="e_fr_energy">   -174.62160334 </i>
    <i name="e_wo_entrp">   -174.62160334 </i>
    <i name="e_0_energy">   -174.62160334 </i>
   </energy>
  </scstep>
  <scstep>
   <time name="total">   73.13   73.38</time>
   <energy>
    <i name="e_fr_energy">   -174.83766501 </i>
    <i name="e_wo_entrp">   -174.83766501 </i>
    <i name="e_0_energy">   -174.83766501 </i>
   </energy>
  </scstep>
  <scstep>
   <time name="total">   68.60   68.81</time>
   <energy>
    <i name="e_fr_energy">   -174.88191155 </i>
    <i name="e_wo_entrp">   -174.88191155 </i>
    <i name="e_0_energy">   -174.88191155 </i>
   </energy>
  </scstep>
  <scstep>
   <time name="total">   71.46   71.68</time>
   <energy>
    <i name="e_fr_energy">   -174.88596085 </i>
    <i name="e_wo_entrp">   -174.88596085 </i>
    <i name="e_0_energy">   -174.88596085 </i>
   </energy>
  </scstep>
  <scstep>
   <time name="total">   76.97   77.20</time>
   <energy>
    <i name="e_fr_energy">   -174.88675328 </i>
    <i name="e_wo_entrp">   -174.88675328 </i>
    <i name="e_0_energy">   -174.88675328 </i>
   </energy>
  </scstep>
  <scstep>
   <time name="total">   75.73   75.96</time>
   <energy>
    <i name="e_fr_energy">   -174.88676752 </i>
    <i name="e_wo_entrp">   -174.88676752 </i>
    <i name="e_0_energy">   -174.88676752 </i>
   </energy>
  </scstep>
  <scstep>
   <time name="total">   75.18   75.40</time>
   <energy>
    <i name="e_fr_energy">   -174.88676186 </i>
    <i name="e_wo_entrp">   -174.88676186 </i>
    <i name="e_0_energy">   -174.88676186 </i>
   </energy>
  </scstep>
  <scstep>
   <time name="total">   73.41   73.63</time>
   <energy>
    <i name="e_fr_energy">   -174.88668795 </i>
    <i name="e_wo_entrp">   -174.88668795 </i>
    <i name="e_0_energy">   -174.88668795 </i>
   </energy>
  </scstep>
  <scstep>
   <time name="total">   71.51   71.73</time>
   <energy>
    <i name="e_fr_energy">   -174.88674983 </i>
    <i name="e_wo_entrp">   -174.88674983 </i>
    <i name="e_0_energy">   -174.88674983 </i>
   </energy>
  </scstep>
  <scstep>
   <time name="total">   70.21   70.42</time>
   <energy>
    <i name="e_fr_energy">   -174.88669882 </i>
    <i name="e_wo_entrp">   -174.88669882 </i>
    <i name="e_0_energy">   -174.88669882 </i>
   </energy>
  </scstep>
  <scstep>
   <time name="total">   70.77   71.01</time>
   <energy>
    <i name="e_fr_energy">   -174.88675582 </i>
    <i name="e_wo_entrp">   -174.88675582 </i>
    <i name="e_0_energy">   -174.88675582 </i>
   </energy>
  </scstep>
  <scstep>
   <time name="total">   69.38   69.60</time>
   <energy>
    <i name="e_fr_energy">   -174.88671718 </i>
    <i name="e_wo_entrp">   -174.88671718 </i>
    <i name="e_0_energy">   -174.88671718 </i>
   </energy>
  </scstep>
  <scstep>
   <time name="total">   56.47   56.64</time>
   <energy>
    <i name="e_fr_energy">   -129.50419700 </i>
    <i name="e_wo_entrp">   -129.50419700 </i>
    <i name="e_0_energy">   -129.50419700 </i>
   </energy>
  </scstep>
  <scstep>
   <time name="total">   69.23   69.43</time>
   <energy>
    <i name="e_fr_energy">   -196.86778957 </i>
    <i name="e_wo_entrp">   -196.86778957 </i>
    <i name="e_0_energy">   -196.86778957 </i>
   </energy>
  </scstep>
  <scstep>
   <time name="total">   72.74   72.96</time>
   <energy>
    <i name="e_fr_energy">   -197.14933388 </i>
    <i name="e_wo_entrp">   -197.14933388 </i>
    <i name="e_0_energy">   -197.14933388 </i>
   </energy>
  </scstep>
  <scstep>
   <time name="total">   66.22   66.41</time>
   <energy>
    <i name="e_fr_energy">   -197.20803587 </i>
    <i name="e_wo_entrp">   -197.20803587 </i>
    <i name="e_0_energy">   -197.20803587 </i>
   </energy>
  </scstep>
  <scstep>
   <time name="total">   71.87   72.08</time>
   <energy>
    <i name="e_fr_energy">   -197.21197372 </i>
    <i name="e_wo_entrp">   -197.21197372 </i>
    <i name="e_0_energy">   -197.21197372 </i>
   </energy>
  </scstep>
  <scstep>
   <time name="total">   76.60   76.82</time>
   <energy>
    <i name="e_fr_energy">   -197.21317828 </i>
    <i name="e_wo_entrp">   -197.21317828 </i>
    <i name="e_0_energy">   -197.21317828 </i>
   </energy>
  </scstep>
  <scstep>
   <time name="total">   75.33   75.54</time>
   <energy>
    <i name="e_fr_energy">   -197.21322207 </i>
    <i name="e_wo_entrp">   -197.21322207 </i>
    <i name="e_0_energy">   -197.21322207 </i>
   </energy>
  </scstep>
  <scstep>
   <time name="total">   75.13   75.35</time>
   <energy>
    <i name="e_fr_energy">   -197.21324620 </i>
    <i name="e_wo_entrp">   -197.21324620 </i>
    <i name="e_0_energy">   -197.21324620 </i>
   </energy>
  </scstep>
  <scstep>
   <time name="total">   73.01   73.23</time>
   <energy>
    <i name="e_fr_energy">   -197.21319380 </i>
    <i name="e_wo_entrp">   -197.21319380 </i>
    <i name="e_0_energy">   -197.21319380 </i>
   </energy>
  </scstep>
  <scstep>
   <time name="total">   71.12   71.33</time>
   <energy>
    <i name="e_fr_energy">   -197.21322993 </i>
    <i name="e_wo_entrp">   -197.21322993 </i>
    <i name="e_0_energy">   -197.21322993 </i>
   </energy>
  </scstep>
  <scstep>
   <time name="total">   69.44   69.65</time>
   <energy>
    <i name="e_fr_energy">   -197.21318667 </i>
    <i name="e_wo_entrp">   -197.21318667 </i>
    <i name="e_0_energy">   -197.21318667 </i>
   </energy>
  </scstep>
  <scstep>
   <time name="total">   68.55   68.76</time>
   <energy>
    <i name="e_fr_energy">   -197.21323700 </i>
    <i name="e_wo_entrp">   -197.21323700 </i>
    <i name="e_0_energy">   -197.21323700 </i>
   </energy>
  </scstep>
  <scstep>
   <time name="total">   68.23   68.43</time>
   <energy>
    <i name="e_fr_energy">   -197.21319261 </i>
    <i name="e_wo_entrp">   -197.21319261 </i>
    <i name="e_0_energy">   -197.21319261 </i>
   </energy>
  </scstep>
  <scstep>
   <time name="total">   53.76   53.91</time>
   <energy>
    <i name="e_fr_energy">   -137.12991167 </i>
    <i name="e_wo_entrp">   -137.12991167 </i>
    <i name="e_0_energy">   -137.12991167 </i>
   </energy>
  </scstep>
  <scstep>
   <time name="total">   67.64   67.84</time>
   <energy>
    <i name="e_fr_energy">   -185.02822347 </i>
    <i name="e_wo_entrp">   -185.02822347 </i>
    <i name="e_0_energy">   -185.02822347 </i>
   </energy>
  </scstep>
  <scstep>
   <time name="total">   70.89   71.09</time>
   <energy>
    <i name="e_fr_energy">   -185.43445016 </i>
    <i name="e_wo_entrp">   -185.43445016 </i>
    <i name="e_0_energy">   -185.43445016 </i>
   </energy>
  </scstep>
  <scstep>
   <time name="total">   64.86   65.04</time>
   <energy>
    <i name="e_fr_energy">   -185.48151238 </i>
    <i name="e_wo_entrp">   -185.48151238 </i>
    <i name="e_0_energy">   -185.48151238 </i>
   </energy>
  </scstep>
  <scstep>
   <time name="total">   66.45   66.63</time>
   <energy>
    <i name="e_fr_energy">   -185.48592180 </i>
    <i name="e_wo_entrp">   -185.48592180 </i>
    <i name="e_0_energy">   -185.48592180 </i>
   </energy>
  </scstep>
  <scstep>
   <time name="total">   74.44   74.68</time>
   <energy>
    <i name="e_fr_energy">   -185.48658266 </i>
    <i name="e_wo_entrp">   -185.48658266 </i>
    <i name="e_0_energy">   -185.48658266 </i>
   </energy>
  </scstep>
  <scstep>
   <time name="total">   73.23   73.47</time>
   <energy>
    <i name="e_fr_energy">   -185.48665414 </i>
    <i name="e_wo_entrp">   -185.48665414 </i>
    <i name="e_0_energy">   -185.48665414 </i>
   </energy>
  </scstep>
  <scstep>
   <time name="total">   74.16   74.40</time>
   <energy>
    <i name="e_fr_energy">   -185.48665917 </i>
    <i name="e_wo_entrp">   -185.48665917 </i>
    <i name="e_0_energy">   -185.48665917 </i>
   </energy>
  </scstep>
  <scstep>
   <time name="total">   72.71   72.95</time>
   <energy>
    <i name="e_fr_energy">   -185.48666667 </i>
    <i name="e_wo_entrp">   -185.48666667 </i>
    <i name="e_0_energy">   -185.48666667 </i>
   </energy>
  </scstep>
  <scstep>
   <time name="total">   71.35   71.58</time>
   <energy>
    <i name="e_fr_energy">   -185.48666251 </i>
    <i name="e_wo_entrp">   -185.48666251 </i>
    <i name="e_0_energy">   -185.48666251 </i>
   </energy>
  </scstep>
  <scstep>
   <time name="total">   69.78   70.00</time>
   <energy>
    <i name="e_fr_energy">   -185.48666700 </i>
    <i name="e_wo_entrp">   -185.48666700 </i>
    <i name="e_0_energy">   -185.48666700 </i>
   </energy>
  </scstep>
  <scstep>
   <time name="total">   69.12   69.34</time>
   <energy>
    <i name="e_fr_energy">   -185.48666250 </i>
    <i name="e_wo_entrp">   -185.48666250 </i>
    <i name="e_0_energy">   -185.48666250 </i>
   </energy>
  </scstep>
  <scstep>
   <time name="total">   68.70   68.91</time>
   <energy>
    <i name="e_fr_energy">   -185.48666719 </i>
    <i name="e_wo_entrp">   -185.48666719 </i>
    <i name="e_0_energy">   -185.48666719 </i>
   </energy>
  </scstep>
  <scstep>
   <time name="total">   68.54   68.76</time>
   <energy>
    <i name="e_fr_energy">   -185.48666508 </i>
    <i name="e_wo_entrp">   -185.48666508 </i>
    <i name="e_0_energy">   -185.48666508 </i>
   </energy>
  </scstep>
  <scstep>
   <time name="total">   73.31   73.58</time>
   <energy>
    <i name="e_fr_energy">     -5.47256173 </i>
    <i name="e_wo_entrp">     -5.47256173 </i>
    <i name="e_0_energy">     -5.47256173 </i>
   </energy>
  </scstep>
  <scstep>
   <time name="total">   75.38   75.64</time>
   <energy>
    <i name="e_fr_energy">     -6.47676257 </i>
    <i name="e_wo_entrp">     -6.47676257 </i>
    <i name="e_0_energy">     -6.47676257 </i>
   </energy>
  </scstep>
  <scstep>
   <time name="total">   78.28   78.55</time>
   <energy>
    <i name="e_fr_energy">     -6.49210626 </i>
    <i name="e_wo_entrp">     -6.49210626 </i>
    <i name="e_0_energy">     -6.49210626 </i>
   </energy>
  </scstep>
  <scstep>
   <time name="total">   78.42   78.68</time>
   <energy>
    <i name="e_fr_energy">     -6.49231199 </i>
    <i name="e_wo_entrp">     -6.49231199 </i>
    <i name="e_0_energy">     -6.49231199 </i>
   </energy>
  </scstep>
  <scstep>
   <time name="total">   73.82   74.06</time>
   <energy>
    <i name="e_fr_energy">     -6.49232164 </i>
    <i name="e_wo_entrp">     -6.49232164 </i>
    <i name="e_0_energy">     -6.49232164 </i>
   </energy>
  </scstep>
  <scstep>
   <time name="total">   68.28   68.51</time>
   <energy>
    <i name="e_fr_energy">     -6.49232184 </i>
    <i name="e_wo_entrp">     -6.49232184 </i>
    <i name="e_0_energy">     -6.49232184 </i>
   </energy>
  </scstep>
  <scstep>
   <time name="total">   73.95   74.20</time>
   <energy>
    <i name="e_fr_energy">     -8.29867545 </i>
    <i name="e_wo_entrp">     -8.29867545 </i>
    <i name="e_0_energy">     -8.29867545 </i>
   </energy>
  </scstep>
  <scstep>
   <time name="total">   74.69   74.94</time>
   <energy>
    <i name="e_fr_energy">     -9.66435173 </i>
    <i name="e_wo_entrp">     -9.66435173 </i>
    <i name="e_0_energy">     -9.66435173 </i>
   </energy>
  </scstep>
  <scstep>
   <time name="total">   76.58   76.84</time>
   <energy>
    <i name="e_fr_energy">     -9.68477741 </i>
    <i name="e_wo_entrp">     -9.68477741 </i>
    <i name="e_0_energy">     -9.68477741 </i>
   </energy>
  </scstep>
  <scstep>
   <time name="total">   77.07   77.33</time>
   <energy>
    <i name="e_fr_energy">     -9.68502953 </i>
    <i name="e_wo_entrp">     -9.68502953 </i>
    <i name="e_0_energy">     -9.68502953 </i>
   </energy>
  </scstep>
  <scstep>
   <time name="total">   72.08   72.33</time>
   <energy>
    <i name="e_fr_energy">     -9.68504137 </i>
    <i name="e_wo_entrp">     -9.68504137 </i>
    <i name="e_0_energy">     -9.68504137 </i>
   </energy>
  </scstep>
  <scstep>
   <time name="total">   67.17   67.38</time>
   <energy>
    <i name="e_fr_energy">     -9.68504163 </i>
    <i name="e_wo_entrp">     -9.68504163 </i>
    <i name="e_0_energy">     -9.68504163 </i>
   </energy>
  </scstep>
  <scstep>
   <time name="total">   74.37   74.62</time>
   <energy>
    <i name="e_fr_energy">     -5.63021821 </i>
    <i name="e_wo_entrp">     -5.63021821 </i>
    <i name="e_0_energy">     -5.63021821 </i>
   </energy>
  </scstep>
  <scstep>
   <time name="total">   75.05   75.30</time>
   <energy>
    <i name="e_fr_energy">     -6.52237783 </i>
    <i name="e_wo_entrp">     -6.52237783 </i>
    <i name="e_0_energy">     -6.52237783 </i>
   </energy>
  </scstep>
  <scstep>
   <time name="total">   77.95   78.22</time>
   <energy>
    <i name="e_fr_energy">     -6.53802479 </i>
    <i name="e_wo_entrp">     -6.53802479 </i>
    <i name="e_0_energy">     -6.53802479 </i>
   </energy>
  </scstep>
  <scstep>
   <time name="total">   77.95   78.21</time>
   <energy>
    <i name="e_fr_energy">     -6.53830376 </i>
    <i name="e_wo_entrp">     -6.53830376 </i>
    <i name="e_0_energy">     -6.53830376 </i>
   </energy>
  </scstep>
  <scstep>
   <time name="total">   74.09   74.34</time>
   <energy>
    <i name="e_fr_energy">     -6.53831318 </i>
    <i name="e_wo_entrp">     -6.53831318 </i>
    <i name="e_0_energy">     -6.53831318 </i>
   </energy>
  </scstep>
  <scstep>
   <time name="total">   69.15   69.38</time>
   <energy>
    <i name="e_fr_energy">     -6.53831341 </i>
    <i name="e_wo_entrp">     -6.53831341 </i>
    <i name="e_0_energy">     -6.53831341 </i>
   </energy>
  </scstep>
  <varray name="epsilon_rpa" >
   <v>      19.55450789       0.00000000       0.00000000 </v>
   <v>       0.00000000      19.55450789       0.00000000 </v>
   <v>       0.00000000       0.00000000      15.99816244 </v>
  </varray>
  <kpoints>
   <generation param="Gamma">
    <v type="int" name="divisions">       9        9        9 </v>
    <v name="usershift">      0.00000000       0.00000000       0.00000000 </v>
    <v name="genvec1">      0.11111111       0.00000000       0.00000000 </v>
    <v name="genvec2">     -0.00000000       0.11111111       0.00000000 </v>
    <v name="genvec3">      0.00000000       0.00000000       0.11111111 </v>
    <v name="shift">      0.00000000       0.00000000       0.00000000 </v>
   </generation>
   <varray name="kpointlist" >
    <v>       0.00000000       0.00000000       0.00000000 </v>
    <v>       0.11111111       0.00000000       0.00000000 </v>
    <v>       0.22222222       0.00000000       0.00000000 </v>
    <v>       0.33333333       0.00000000       0.00000000 </v>
    <v>       0.44444444       0.00000000       0.00000000 </v>
    <v>       0.00000000       0.11111111       0.00000000 </v>
    <v>       0.11111111       0.11111111       0.00000000 </v>
    <v>       0.22222222       0.11111111       0.00000000 </v>
    <v>       0.33333333       0.11111111       0.00000000 </v>
    <v>       0.44444444       0.11111111       0.00000000 </v>
    <v>      -0.44444444       0.11111111       0.00000000 </v>
    <v>      -0.33333333       0.11111111       0.00000000 </v>
    <v>      -0.22222222       0.11111111       0.00000000 </v>
    <v>      -0.11111111       0.11111111       0.00000000 </v>
    <v>       0.00000000       0.22222222       0.00000000 </v>
    <v>       0.11111111       0.22222222       0.00000000 </v>
    <v>       0.22222222       0.22222222       0.00000000 </v>
    <v>       0.33333333       0.22222222       0.00000000 </v>
    <v>       0.44444444       0.22222222       0.00000000 </v>
    <v>      -0.44444444       0.22222222       0.00000000 </v>
    <v>      -0.33333333       0.22222222       0.00000000 </v>
    <v>      -0.22222222       0.22222222       0.00000000 </v>
    <v>      -0.11111111       0.22222222       0.00000000 </v>
    <v>       0.00000000       0.33333333       0.00000000 </v>
    <v>       0.11111111       0.33333333       0.00000000 </v>
    <v>       0.22222222       0.33333333       0.00000000 </v>
    <v>       0.33333333       0.33333333       0.00000000 </v>
    <v>       0.44444444       0.33333333       0.00000000 </v>
    <v>      -0.44444444       0.33333333       0.00000000 </v>
    <v>      -0.33333333       0.33333333       0.00000000 </v>
    <v>      -0.22222222       0.33333333       0.00000000 </v>
    <v>      -0.11111111       0.33333333       0.00000000 </v>
    <v>       0.00000000       0.44444444       0.00000000 </v>
    <v>       0.11111111       0.44444444       0.00000000 </v>
    <v>       0.22222222       0.44444444       0.00000000 </v>
    <v>       0.33333333       0.44444444       0.00000000 </v>
    <v>       0.44444444       0.44444444       0.00000000 </v>
    <v>      -0.44444444       0.44444444       0.00000000 </v>
    <v>      -0.33333333       0.44444444       0.00000000 </v>
    <v>      -0.22222222       0.44444444       0.00000000 </v>
    <v>      -0.11111111       0.44444444       0.00000000 </v>
    <v>       0.00000000       0.11111111       0.11111111 </v>
    <v>       0.11111111       0.11111111       0.11111111 </v>
    <v>       0.22222222       0.11111111       0.11111111 </v>
    <v>       0.33333333       0.11111111       0.11111111 </v>
    <v>       0.44444444       0.11111111       0.11111111 </v>
    <v>      -0.44444444       0.11111111       0.11111111 </v>
    <v>      -0.33333333       0.11111111       0.11111111 </v>
    <v>      -0.22222222       0.11111111       0.11111111 </v>
    <v>      -0.11111111       0.11111111       0.11111111 </v>
    <v>       0.00000000       0.22222222       0.11111111 </v>
    <v>       0.11111111       0.22222222       0.11111111 </v>
    <v>       0.22222222       0.22222222       0.11111111 </v>
    <v>       0.33333333       0.22222222       0.11111111 </v>
    <v>       0.44444444       0.22222222       0.11111111 </v>
    <v>      -0.44444444       0.22222222       0.11111111 </v>
    <v>      -0.33333333       0.22222222       0.11111111 </v>
    <v>      -0.22222222       0.22222222       0.11111111 </v>
    <v>      -0.11111111       0.22222222       0.11111111 </v>
    <v>       0.00000000       0.33333333       0.11111111 </v>
    <v>       0.11111111       0.33333333       0.11111111 </v>
    <v>       0.22222222       0.33333333       0.11111111 </v>
    <v>       0.33333333       0.33333333       0.11111111 </v>
    <v>       0.44444444       0.33333333       0.11111111 </v>
    <v>      -0.44444444       0.33333333       0.11111111 </v>
    <v>      -0.33333333       0.33333333       0.11111111 </v>
    <v>      -0.22222222       0.33333333       0.11111111 </v>
    <v>      -0.11111111       0.33333333       0.11111111 </v>
    <v>       0.00000000       0.44444444       0.11111111 </v>
    <v>       0.11111111       0.44444444       0.11111111 </v>
    <v>       0.22222222       0.44444444       0.11111111 </v>
    <v>       0.33333333       0.44444444       0.11111111 </v>
    <v>       0.44444444       0.44444444       0.11111111 </v>
    <v>      -0.44444444       0.44444444       0.11111111 </v>
    <v>      -0.33333333       0.44444444       0.11111111 </v>
    <v>      -0.22222222       0.44444444       0.11111111 </v>
    <v>      -0.11111111       0.44444444       0.11111111 </v>
    <v>       0.00000000      -0.44444444       0.11111111 </v>
    <v>       0.11111111      -0.44444444       0.11111111 </v>
    <v>       0.22222222      -0.44444444       0.11111111 </v>
    <v>       0.33333333      -0.44444444       0.11111111 </v>
    <v>       0.44444444      -0.44444444       0.11111111 </v>
    <v>      -0.44444444      -0.44444444       0.11111111 </v>
    <v>      -0.33333333      -0.44444444       0.11111111 </v>
    <v>      -0.22222222      -0.44444444       0.11111111 </v>
    <v>      -0.11111111      -0.44444444       0.11111111 </v>
    <v>       0.00000000      -0.33333333       0.11111111 </v>
    <v>       0.11111111      -0.33333333       0.11111111 </v>
    <v>       0.22222222      -0.33333333       0.11111111 </v>
    <v>       0.33333333      -0.33333333       0.11111111 </v>
    <v>       0.44444444      -0.33333333       0.11111111 </v>
    <v>      -0.44444444      -0.33333333       0.11111111 </v>
    <v>      -0.33333333      -0.33333333       0.11111111 </v>
    <v>      -0.22222222      -0.33333333       0.11111111 </v>
    <v>      -0.11111111      -0.33333333       0.11111111 </v>
    <v>       0.00000000      -0.22222222       0.11111111 </v>
    <v>       0.11111111      -0.22222222       0.11111111 </v>
    <v>       0.22222222      -0.22222222       0.11111111 </v>
    <v>       0.33333333      -0.22222222       0.11111111 </v>
    <v>       0.44444444      -0.22222222       0.11111111 </v>
    <v>      -0.44444444      -0.22222222       0.11111111 </v>
    <v>      -0.33333333      -0.22222222       0.11111111 </v>
    <v>      -0.22222222      -0.22222222       0.11111111 </v>
    <v>      -0.11111111      -0.22222222       0.11111111 </v>
    <v>       0.00000000      -0.11111111       0.11111111 </v>
    <v>       0.11111111      -0.11111111       0.11111111 </v>
    <v>       0.22222222      -0.11111111       0.11111111 </v>
    <v>       0.33333333      -0.11111111       0.11111111 </v>
    <v>       0.44444444      -0.11111111       0.11111111 </v>
    <v>       0.00000000       0.22222222       0.22222222 </v>
    <v>       0.11111111       0.22222222       0.22222222 </v>
    <v>       0.22222222       0.22222222       0.22222222 </v>
    <v>       0.33333333       0.22222222       0.22222222 </v>
    <v>       0.44444444       0.22222222       0.22222222 </v>
    <v>      -0.44444444       0.22222222       0.22222222 </v>
    <v>      -0.33333333       0.22222222       0.22222222 </v>
    <v>      -0.22222222       0.22222222       0.22222222 </v>
    <v>      -0.11111111       0.22222222       0.22222222 </v>
    <v>       0.00000000       0.33333333       0.22222222 </v>
    <v>       0.11111111       0.33333333       0.22222222 </v>
    <v>       0.22222222       0.33333333       0.22222222 </v>
    <v>       0.33333333       0.33333333       0.22222222 </v>
    <v>       0.44444444       0.33333333       0.22222222 </v>
    <v>      -0.44444444       0.33333333       0.22222222 </v>
    <v>      -0.33333333       0.33333333       0.22222222 </v>
    <v>      -0.22222222       0.33333333       0.22222222 </v>
    <v>      -0.11111111       0.33333333       0.22222222 </v>
    <v>       0.00000000       0.44444444       0.22222222 </v>
    <v>       0.11111111       0.44444444       0.22222222 </v>
    <v>       0.22222222       0.44444444       0.22222222 </v>
    <v>       0.33333333       0.44444444       0.22222222 </v>
    <v>       0.44444444       0.44444444       0.22222222 </v>
    <v>      -0.44444444       0.44444444       0.22222222 </v>
    <v>      -0.33333333       0.44444444       0.22222222 </v>
    <v>      -0.22222222       0.44444444       0.22222222 </v>
    <v>      -0.11111111       0.44444444       0.22222222 </v>
    <v>       0.00000000      -0.44444444       0.22222222 </v>
    <v>       0.11111111      -0.44444444       0.22222222 </v>
    <v>       0.22222222      -0.44444444       0.22222222 </v>
    <v>       0.33333333      -0.44444444       0.22222222 </v>
    <v>       0.44444444      -0.44444444       0.22222222 </v>
    <v>      -0.44444444      -0.44444444       0.22222222 </v>
    <v>      -0.33333333      -0.44444444       0.22222222 </v>
    <v>      -0.22222222      -0.44444444       0.22222222 </v>
    <v>      -0.11111111      -0.44444444       0.22222222 </v>
    <v>       0.00000000      -0.33333333       0.22222222 </v>
    <v>       0.11111111      -0.33333333       0.22222222 </v>
    <v>       0.22222222      -0.33333333       0.22222222 </v>
    <v>       0.33333333      -0.33333333       0.22222222 </v>
    <v>       0.44444444      -0.33333333       0.22222222 </v>
    <v>      -0.44444444      -0.33333333       0.22222222 </v>
    <v>      -0.33333333      -0.33333333       0.22222222 </v>
    <v>      -0.22222222      -0.33333333       0.22222222 </v>
    <v>      -0.11111111      -0.33333333       0.22222222 </v>
    <v>       0.00000000      -0.22222222       0.22222222 </v>
    <v>       0.11111111      -0.22222222       0.22222222 </v>
    <v>       0.22222222      -0.22222222       0.22222222 </v>
    <v>       0.33333333      -0.22222222       0.22222222 </v>
    <v>       0.44444444      -0.22222222       0.22222222 </v>
    <v>       0.00000000       0.33333333       0.33333333 </v>
    <v>       0.11111111       0.33333333       0.33333333 </v>
    <v>       0.22222222       0.33333333       0.33333333 </v>
    <v>       0.33333333       0.33333333       0.33333333 </v>
    <v>       0.44444444       0.33333333       0.33333333 </v>
    <v>      -0.44444444       0.33333333       0.33333333 </v>
    <v>      -0.33333333       0.33333333       0.33333333 </v>
    <v>      -0.22222222       0.33333333       0.33333333 </v>
    <v>      -0.11111111       0.33333333       0.33333333 </v>
    <v>       0.00000000       0.44444444       0.33333333 </v>
    <v>       0.11111111       0.44444444       0.33333333 </v>
[...]
       <r>    7.2230    0.0000 </r>
       <r>    7.7050    0.0000 </r>
       <r>    8.9308    0.0000 </r>
       <r>    9.9634    0.0000 </r>
      </set>
      <set comment="kpoint 83">
       <r>  -19.2522    1.0000 </r>
       <r>  -19.2501    1.0000 </r>
       <r>  -19.2383    1.0000 </r>
       <r>  -19.2379    1.0000 </r>
       <r>  -19.2366    1.0000 </r>
       <r>  -19.2350    1.0000 </r>
       <r>  -19.2343    1.0000 </r>
       <r>  -19.2317    1.0000 </r>
       <r>  -19.2316    1.0000 </r>
       <r>  -19.2284    1.0000 </r>
       <r>   -9.7851    1.0000 </r>
       <r>   -9.3990    1.0000 </r>
       <r>   -8.4219    1.0000 </r>
       <r>   -6.0269    1.0000 </r>
       <r>   -5.3231    1.0000 </r>
       <r>    0.0469    1.0000 </r>
       <r>    0.9172    1.0000 </r>
       <r>    1.2933    1.0000 </r>
       <r>    1.3555    1.0000 </r>
       <r>    1.7745    1.0000 </r>
       <r>    1.9264    1.0000 </r>
       <r>    2.5976    1.0000 </r>
       <r>    2.7312    1.0000 </r>
       <r>    3.3916    1.0000 </r>
       <r>    4.8845    0.0000 </r>
       <r>    5.8787    0.0000 </r>
       <r>    6.1396    0.0000 </r>
       <r>    6.4970    0.0000 </r>
       <r>    7.0411    0.0000 </r>
       <r>    7.2118    0.0000 </r>
       <r>    8.9262    0.0000 </r>
       <r>   10.2650    0.0000 </r>
      </set>
      <set comment="kpoint 84">
       <r>  -19.2468    1.0000 </r>
       <r>  -19.2468    1.0000 </r>
       <r>  -19.2456    1.0000 </r>
       <r>  -19.2456    1.0000 </r>
       <r>  -19.2421    1.0000 </r>
       <r>  -19.2400    1.0000 </r>
       <r>  -19.2306    1.0000 </r>
       <r>  -19.2306    1.0000 </r>
       <r>  -19.2284    1.0000 </r>
       <r>  -19.2284    1.0000 </r>
       <r>  -10.1980    1.0000 </r>
       <r>   -9.7738    1.0000 </r>
       <r>   -8.5928    1.0000 </r>
       <r>   -5.8639    1.0000 </r>
       <r>   -4.6806    1.0000 </r>
       <r>    1.5228    1.0000 </r>
       <r>    2.0559    1.0000 </r>
       <r>    2.0559    1.0000 </r>
       <r>    2.2948    1.0000 </r>
       <r>    2.2948    1.0000 </r>
       <r>    2.4892    1.0000 </r>
       <r>    2.6554    1.0000 </r>
       <r>    2.6554    1.0000 </r>
       <r>    3.1857    1.0000 </r>
       <r>    4.2533    0.0000 </r>
       <r>    5.4764    0.0000 </r>
       <r>    5.4764    0.0000 </r>
       <r>    5.8782    0.0000 </r>
       <r>    6.3503    0.0000 </r>
       <r>    6.3503    0.0000 </r>
       <r>    9.8260    0.0000 </r>
       <r>   10.4930    0.0000 </r>
      </set>
      <set comment="kpoint 85">
       <r>  -19.2481    1.0000 </r>
       <r>  -19.2466    1.0000 </r>
       <r>  -19.2442    1.0000 </r>
       <r>  -19.2429    1.0000 </r>
       <r>  -19.2404    1.0000 </r>
       <r>  -19.2384    1.0000 </r>
       <r>  -19.2323    1.0000 </r>
       <r>  -19.2311    1.0000 </r>
       <r>  -19.2299    1.0000 </r>
       <r>  -19.2285    1.0000 </r>
       <r>  -10.0915    1.0000 </r>
       <r>   -9.6783    1.0000 </r>
       <r>   -8.5420    1.0000 </r>
       <r>   -5.8980    1.0000 </r>
       <r>   -4.8506    1.0000 </r>
       <r>    1.1061    1.0000 </r>
       <r>    1.5574    1.0000 </r>
       <r>    1.7924    1.0000 </r>
       <r>    1.8632    1.0000 </r>
       <r>    1.9832    1.0000 </r>
       <r>    2.0893    1.0000 </r>
       <r>    2.7555    1.0000 </r>
       <r>    3.1425    1.0000 </r>
       <r>    3.3547    1.0000 </r>
       <r>    4.6815    0.0000 </r>
       <r>    5.2565    0.0000 </r>
       <r>    5.6098    0.0000 </r>
       <r>    6.1613    0.0000 </r>
       <r>    6.5704    0.0000 </r>
       <r>    6.7596    0.0000 </r>
       <r>    9.6837    0.0000 </r>
       <r>   10.0573    0.0000 </r>
      </set>
     </set>
    </set>
   </array>
  </eigenvalues>
  <separator name="orbital magnetization" >
   <v name="MAGDIPOLOUT">      0.00000000      0.00000000      0.00000000</v>
  </separator>
  <dos>
   <i name="efermi">      3.51496670 </i>
   <total>
    <array>
     <dimension dim="1">gridpoints</dimension>
     <dimension dim="2">spin</dimension>
     <field>energy</field>
     <field>total</field>
     <field>integrated</field>
     <set>
      <set comment="spin 1">
       <r>   -20.7661     0.0000     0.0000 </r>
       <r>   -20.6557     0.0000     0.0000 </r>
       <r>   -20.5454     0.0000     0.0000 </r>
       <r>   -20.4351     0.0000     0.0000 </r>
       <r>   -20.3248     0.0000     0.0000 </r>
       <r>   -20.2145     0.0000     0.0000 </r>
       <r>   -20.1042     0.0000     0.0000 </r>
       <r>   -19.9939     0.0000     0.0000 </r>
       <r>   -19.8836     0.0000     0.0000 </r>
       <r>   -19.7733     0.0000     0.0000 </r>
       <r>   -19.6630     0.0000     0.0000 </r>
       <r>   -19.5527     0.0000     0.0000 </r>
       <r>   -19.4424     0.0000     0.0000 </r>
       <r>   -19.3321     0.0000     0.0000 </r>
       <r>   -19.2218     0.0000    20.0000 </r>
       <r>   -19.1115     0.0000    20.0000 </r>
       <r>   -19.0012     0.0000    20.0000 </r>
       <r>   -18.8909     0.0000    20.0000 </r>
       <r>   -18.7806     0.0000    20.0000 </r>
       <r>   -18.6702     0.0000    20.0000 </r>
       <r>   -18.5599     0.0000    20.0000 </r>
       <r>   -18.4496     0.0000    20.0000 </r>
       <r>   -18.3393     0.0000    20.0000 </r>
       <r>   -18.2290     0.0000    20.0000 </r>
       <r>   -18.1187     0.0000    20.0000 </r>
       <r>   -18.0084     0.0000    20.0000 </r>
       <r>   -17.8981     0.0000    20.0000 </r>
       <r>   -17.7878     0.0000    20.0000 </r>
       <r>   -17.6775     0.0000    20.0000 </r>
       <r>   -17.5672     0.0000    20.0000 </r>
       <r>   -17.4569     0.0000    20.0000 </r>
       <r>   -17.3466     0.0000    20.0000 </r>
       <r>   -17.2363     0.0000    20.0000 </r>
       <r>   -17.1260     0.0000    20.0000 </r>
       <r>   -17.0157     0.0000    20.0000 </r>
       <r>   -16.9054     0.0000    20.0000 </r>
       <r>   -16.7950     0.0000    20.0000 </r>
       <r>   -16.6847     0.0000    20.0000 </r>
       <r>   -16.5744     0.0000    20.0000 </r>
       <r>   -16.4641     0.0000    20.0000 </r>
       <r>   -16.3538     0.0000    20.0000 </r>
       <r>   -16.2435     0.0000    20.0000 </r>
       <r>   -16.1332     0.0000    20.0000 </r>
       <r>   -16.0229     0.0000    20.0000 </r>
       <r>   -15.9126     0.0000    20.0000 </r>
       <r>   -15.8023     0.0000    20.0000 </r>
       <r>   -15.6920     0.0000    20.0000 </r>
       <r>   -15.5817     0.0000    20.0000 </r>
       <r>   -15.4714     0.0000    20.0000 </r>
       <r>   -15.3611     0.0000    20.0000 </r>
       <r>   -15.2508     0.0000    20.0000 </r>
       <r>   -15.1405     0.0000    20.0000 </r>
       <r>   -15.0302     0.0000    20.0000 </r>
       <r>   -14.9199     0.0000    20.0000 </r>
       <r>   -14.8095     0.0000    20.0000 </r>
       <r>   -14.6992     0.0000    20.0000 </r>
       <r>   -14.5889     0.0000    20.0000 </r>
       <r>   -14.4786     0.0000    20.0000 </r>
       <r>   -14.3683     0.0000    20.0000 </r>
       <r>   -14.2580     0.0000    20.0000 </r>
       <r>   -14.1477     0.0000    20.0000 </r>
       <r>   -14.0374     0.0000    20.0000 </r>
       <r>   -13.9271     0.0000    20.0000 </r>
       <r>   -13.8168     0.0000    20.0000 </r>
       <r>   -13.7065     0.0000    20.0000 </r>
       <r>   -13.5962     0.0000    20.0000 </r>
       <r>   -13.4859     0.0000    20.0000 </r>
       <r>   -13.3756     0.0000    20.0000 </r>
       <r>   -13.2653     0.0000    20.0000 </r>
       <r>   -13.1550     0.0000    20.0000 </r>
       <r>   -13.0447     0.0000    20.0000 </r>
       <r>   -12.9344     0.0000    20.0000 </r>
       <r>   -12.8240     0.0000    20.0000 </r>
       <r>   -12.7137     0.0000    20.0000 </r>
       <r>   -12.6034     0.0000    20.0000 </r>
       <r>   -12.4931     0.0000    20.0000 </r>
       <r>   -12.3828     0.0000    20.0000 </r>
       <r>   -12.2725     0.0000    20.0000 </r>
       <r>   -12.1622     0.0000    20.0000 </r>
       <r>   -12.0519     0.0000    20.0000 </r>
       <r>   -11.9416     0.0000    20.0000 </r>
       <r>   -11.8313     0.0000    20.0000 </r>
       <r>   -11.7210     0.0000    20.0000 </r>
       <r>   -11.6107     0.0000    20.0000 </r>
       <r>   -11.5004     0.0000    20.0000 </r>
       <r>   -11.3901     0.0000    20.0000 </r>
       <r>   -11.2798     0.0000    20.0000 </r>
       <r>   -11.1695     0.0000    20.0000 </r>
       <r>   -11.0592     0.0000    20.0000 </r>
       <r>   -10.9489     0.0000    20.0000 </r>
       <r>   -10.8385     0.0000    20.0000 </r>
       <r>   -10.7282     0.0000    20.0000 </r>
       <r>   -10.6179     0.0000    20.0000 </r>
       <r>   -10.5076     0.0000    20.0000 </r>
       <r>   -10.3973     0.0000    20.0000 </r>
       <r>   -10.2870     0.0000    20.0000 </r>
       <r>   -10.1767     0.5149    20.0110 </r>
       <r>   -10.0664     0.7689    20.1065 </r>
       <r>    -9.9561     0.9010    20.1986 </r>
       <r>    -9.8458     0.9006    20.3013 </r>
       <r>    -9.7355     1.0846    20.4007 </r>
       <r>    -9.6252     1.9517    20.5801 </r>
       <r>    -9.5149     1.9553    20.7893 </r>
       <r>    -9.4046     2.0101    21.0099 </r>
       <r>    -9.2943     2.0515    21.2316 </r>
       <r>    -9.1840     2.1886    21.4655 </r>
       <r>    -9.0737     2.3098    21.7139 </r>
       <r>    -8.9634     2.5300    21.9804 </r>
       <r>    -8.8530     2.7895    22.2736 </r>
       <r>    -8.7427     3.4449    22.6178 </r>
       <r>    -8.6324     4.4786    23.0253 </r>
       <r>    -8.5221     5.0672    23.7665 </r>
       <r>    -8.4118     9.5584    24.4804 </r>
       <r>    -8.3015    11.1895    25.5728 </r>
       <r>    -8.1912     0.0000    26.0000 </r>
       <r>    -8.0809     0.0000    26.0000 </r>
       <r>    -7.9706     0.0000    26.0000 </r>
       <r>    -7.8603     0.0000    26.0000 </r>
       <r>    -7.7500     0.0000    26.0000 </r>
       <r>    -7.6397     0.0000    26.0000 </r>
       <r>    -7.5294     0.0000    26.0000 </r>
       <r>    -7.4191     0.0000    26.0000 </r>
       <r>    -7.3088     0.0000    26.0000 </r>
       <r>    -7.1985     0.0000    26.0000 </r>
       <r>    -7.0882     0.0000    26.0000 </r>
       <r>    -6.9779     0.0000    26.0000 </r>
       <r>    -6.8675     1.4177    26.0313 </r>
       <r>    -6.7572     4.2728    26.4354 </r>
       <r>    -6.6469     3.2833    26.8479 </r>
       <r>    -6.5366     2.8679    27.1834 </r>
       <r>    -6.4263     3.2907    27.5040 </r>
       <r>    -6.3160     3.9584    27.9315 </r>
       <r>    -6.2057     2.6405    28.2606 </r>
       <r>    -6.0954     2.5961    28.5534 </r>
       <r>    -5.9851     2.6289    28.8334 </r>
       <r>    -5.8748     2.8096    29.1407 </r>
       <r>    -5.7645     1.2291    29.3512 </r>
       <r>    -5.6542     0.7681    29.4432 </r>
       <r>    -5.5439     0.7202    29.5253 </r>
       <r>    -5.4336     0.6723    29.6021 </r>
       <r>    -5.3233     0.6409    29.6739 </r>
       <r>    -5.2130     0.6569    29.7458 </r>
       <r>    -5.1027     0.6008    29.8155 </r>
       <r>    -4.9924     0.5357    29.8782 </r>
       <r>    -4.8820     0.6104    29.9414 </r>
       <r>    -4.7717     0.2117    29.9925 </r>
       <r>    -4.6614     0.0000    30.0000 </r>
       <r>    -4.5511     0.0000    30.0000 </r>
       <r>    -4.4408     0.0000    30.0000 </r>
       <r>    -4.3305     0.0000    30.0000 </r>
       <r>    -4.2202     0.0000    30.0000 </r>
       <r>    -4.1099     0.0000    30.0000 </r>
       <r>    -3.9996     0.0000    30.0000 </r>
       <r>    -3.8893     0.0000    30.0000 </r>
       <r>    -3.7790     0.0000    30.0000 </r>
       <r>    -3.6687     0.0000    30.0000 </r>
       <r>    -3.5584     0.0000    30.0000 </r>
       <r>    -3.4481     0.0000    30.0000 </r>
       <r>    -3.3378     0.0000    30.0000 </r>
       <r>    -3.2275     0.0000    30.0000 </r>
       <r>    -3.1172     0.0000    30.0000 </r>
       <r>    -3.0069     0.0000    30.0000 </r>
       <r>    -2.8965     0.0000    30.0000 </r>
       <r>    -2.7862     0.0000    30.0000 </r>
       <r>    -2.6759     0.0000    30.0000 </r>
       <r>    -2.5656     0.0000    30.0000 </r>
       <r>    -2.4553     0.0000    30.0000 </r>
       <r>    -2.3450     0.0000    30.0000 </r>
       <r>    -2.2347     0.0000    30.0000 </r>
       <r>    -2.1244     0.0000    30.0000 </r>
       <r>    -2.0141     0.0000    30.0000 </r>
       <r>    -1.9038     0.0000    30.0000 </r>
       <r>    -1.7935     0.0000    30.0000 </r>
       <r>    -1.6832     0.0000    30.0000 </r>
       <r>    -1.5729     0.0000    30.0000 </r>
       <r>    -1.4626     0.0000    30.0000 </r>
       <r>    -1.3523     0.0000    30.0000 </r>
       <r>    -1.2420     0.0000    30.0000 </r>
       <r>    -1.1317     0.0000    30.0000 </r>
       <r>    -1.0214     1.8268    30.1459 </r>
       <r>    -0.9110     2.2567    30.3618 </r>
       <r>    -0.8007     4.2823    30.7151 </r>
       <r>    -0.6904     1.4734    30.9320 </r>
       <r>    -0.5801     1.2208    31.0802 </r>
       <r>    -0.4698     0.9905    31.2018 </r>
       <r>    -0.3595     3.8987    31.3739 </r>
       <r>    -0.2492     1.6798    31.7531 </r>
       <r>    -0.1389     1.8809    31.9447 </r>
       <r>    -0.0286     2.1920    32.1693 </r>
       <r>     0.0817     4.6097    32.4635 </r>
       <r>     0.1920     5.4935    33.0419 </r>
       <r>     0.3023     4.7506    33.6046 </r>
       <r>     0.4126     4.1387    34.0774 </r>
       <r>     0.5229     4.6912    34.5646 </r>
       <r>     0.6332     5.6099    35.1318 </r>
       <r>     0.7435     3.7655    35.6254 </r>
       <r>     0.8538     4.4516    36.0881 </r>
       <r>     0.9641     5.4526    36.6387 </r>
       <r>     1.0745     4.8280    37.2555 </r>
       <r>     1.1848     4.8033    37.7483 </r>
       <r>     1.2951     5.2716    38.3879 </r>
       <r>     1.4054     4.6798    38.9277 </r>
       <r>     1.5157     4.7935    39.4476 </r>
       <r>     1.6260     4.5349    39.9578 </r>
       <r>     1.7363     3.7325    40.4177 </r>
       <r>     1.8466     3.7052    40.8324 </r>
       <r>     1.9569     3.1570    41.2410 </r>
       <r>     2.0672     2.1750    41.5156 </r>
       <r>     2.1775     4.8131    41.8987 </r>
       <r>     2.2878     4.1911    42.4114 </r>
       <r>     2.3981     6.0914    42.9519 </r>
       <r>     2.5084     3.2898    43.5158 </r>
       <r>     2.6187     6.8692    44.1228 </r>
       <r>     2.7290     6.1642    44.8650 </r>
       <r>     2.8393     5.3470    45.4457 </r>
       <r>     2.9497     3.9105    45.9468 </r>
       <r>     3.0600     8.4674    46.7166 </r>
       <r>     3.1703     2.9835    47.2715 </r>
       <r>     3.2806     4.8338    47.6943 </r>
       <r>     3.3909     0.4541    47.9964 </r>
       <r>     3.5012     0.0000    48.0000 </r>
       <r>     3.6115     0.0000    48.0000 </r>
       <r>     3.7218     0.0000    48.0000 </r>
       <r>     3.8321     0.0000    48.0000 </r>
       <r>     3.9424     0.0000    48.0000 </r>
       <r>     4.0527     0.0000    48.0000 </r>
       <r>     4.1630     0.0047    48.0001 </r>
       <r>     4.2733     0.0408    48.0021 </r>
       <r>     4.3836     0.1029    48.0101 </r>
       <r>     4.4939     0.1657    48.0249 </r>
       <r>     4.6042     0.2293    48.0467 </r>
       <r>     4.7145     0.2873    48.0748 </r>
       <r>     4.8248     0.6974    48.1217 </r>
       <r>     4.9352     1.2567    48.2335 </r>
       <r>     5.0455     1.6246    48.3919 </r>
       <r>     5.1558     2.4106    48.6026 </r>
       <r>     5.2661     2.8999    48.8989 </r>
       <r>     5.3764     3.3079    49.2554 </r>
       <r>     5.4867     3.2646    49.6352 </r>
       <r>     5.5970     4.4188    50.0414 </r>
       <r>     5.7073     5.0473    50.5580 </r>
       <r>     5.8176     4.7617    51.1161 </r>
       <r>     5.9279     5.3174    51.6798 </r>
       <r>     6.0382     3.9373    52.2557 </r>
       <r>     6.1485     4.9644    52.6794 </r>
       <r>     6.2588     4.1612    53.2132 </r>
       <r>     6.3691     4.3600    53.6566 </r>
       <r>     6.4794     3.9134    54.0813 </r>
       <r>     6.5897     2.7304    54.5011 </r>
       <r>     6.7000     2.5066    54.7699 </r>
       <r>     6.8103     2.9428    55.0563 </r>
       <r>     6.9207     3.1372    55.4084 </r>
       <r>     7.0310     3.0749    55.7487 </r>
       <r>     7.1413     3.2691    56.0941 </r>
       <r>     7.2516     3.3987    56.4676 </r>
       <r>     7.3619     3.8546    56.8461 </r>
       <r>     7.4722     6.0896    57.4049 </r>
       <r>     7.5825     4.1175    57.9948 </r>
       <r>     7.6928     2.2143    58.3390 </r>
       <r>     7.8031     2.0114    58.5567 </r>
       <r>     7.9134     2.0818    58.7930 </r>
       <r>     8.0237     2.8429    59.0269 </r>
       <r>     8.1340     3.7562    59.4085 </r>
       <r>     8.2443     2.8289    59.7580 </r>
       <r>     8.3546     2.6965    60.0682 </r>
       <r>     8.4649     1.7866    60.3071 </r>
       <r>     8.5752     1.6570    60.5057 </r>
       <r>     8.6855     1.1863    60.6745 </r>
       <r>     8.7958     1.3423    60.8094 </r>
       <r>     8.9062     1.5532    60.9703 </r>
       <r>     9.0165     1.5279    61.1458 </r>
       <r>     9.1268     1.3639    61.3054 </r>
       <r>     9.2371     1.4156    61.4521 </r>
       <r>     9.3474     1.3202    61.6149 </r>
       <r>     9.4577     0.7048    61.7197 </r>
       <r>     9.5680     0.8824    61.8021 </r>
       <r>     9.6783     1.6728    61.9344 </r>
       <r>     9.7886     2.1363    62.1618 </r>
       <r>     9.8989     2.1317    62.3892 </r>
       <r>    10.0092     2.1936    62.6238 </r>
       <r>    10.1195     2.5066    62.8681 </r>
       <r>    10.2298     2.9203    63.2313 </r>
       <r>    10.3401     1.9846    63.4966 </r>
       <r>    10.4504     1.8227    63.7080 </r>
       <r>    10.5607     0.9921    63.8553 </r>
       <r>    10.6710     0.6753    63.9472 </r>
       <r>    10.7813     0.1245    63.9986 </r>
       <r>    10.8917     0.0000    64.0000 </r>
       <r>    11.0020     0.0000    64.0000 </r>
       <r>    11.1123     0.0000    64.0000 </r>
       <r>    11.2226     0.0000    64.0000 </r>
       <r>    11.3329     0.0000    64.0000 </r>
       <r>    11.4432     0.0000    64.0000 </r>
       <r>    11.5535     0.0000    64.0000 </r>
       <r>    11.6638     0.0000    64.0000 </r>
       <r>    11.7741     0.0000    64.0000 </r>
       <r>    11.8844     0.0000    64.0000 </r>
       <r>    11.9947     0.0000    64.0000 </r>
       <r>    12.1050     0.0000    64.0000 </r>
       <r>    12.2153     0.0000    64.0000 </r>
       <r>    12.3256     0.0000    64.0000 </r>
      </set>
     </set>
    </array>
   </total>
  </dos>
 </calculation>
 <structure name="finalpos" >
  <crystal>
   <varray name="basis" >
    <v>       2.41902100       0.00000000      10.37750536 </v>
    <v>      -1.20951050       2.09493364      10.37750536 </v>
    <v>      -1.20951050      -2.09493364      10.37750536 </v>
   </varray>
   <i name="volume">    157.76989256 </i>
   <varray name="rec_basis" >
    <v>       0.27559358       0.00000000       0.03212076 </v>
    <v>      -0.13779679       0.23867104       0.03212076 </v>
    <v>      -0.13779679      -0.23867104       0.03212076 </v>
   </varray>
  </crystal>
  <varray name="positions" >
   <v>       0.39599532       0.39599532       0.39599532 </v>
   <v>       0.60400468       0.60400468       0.60400468 </v>
   <v>       0.77956961       0.77956961       0.77956961 </v>
   <v>       0.22043039       0.22043039       0.22043039 </v>
   <v>       0.00000000       0.00000000       0.00000000 </v>
  </varray>
 </structure>
</modeling>
