Start at Fri 27 Sep 23:16:36 BST 2024
Running the following command
mpirun -np 8 /home/software/qespresso/ph.x -inp urea.ir.in

     Program PHONON v.7.3.1 starts on 27Sep2024 at 23:16:37 
        Git branch: master
        Last git commit: 7fd60c9bc9fe7a7d1fe6f1049f4afba0eab9aeef-dirty
        Last git commit date: Thu Feb 29 10:18:05 2024 +0000
        Last git commit subject: Merge branch 'master_qe_7.3.1' into 'master'

     This program is part of the open-source Quantum ESPRESSO suite
     for quantum simulation of materials; please cite
         "P. Giannozzi et al., J. Phys.:Condens. Matter 21 395502 (2009);
         "P. Giannozzi et al., J. Phys.:Condens. Matter 29 465901 (2017);
         "P. Giannozzi et al., J. Chem. Phys. 152 154105 (2020);
          URL http://www.quantum-espresso.org", 
     in publications or presentations arising from this work. More details at
     http://www.quantum-espresso.org/quote

     Parallel version (MPI), running on     8 processors

     MPI processes distributed on     1 nodes
     10279 MiB available memory on the printing compute node when the environment starts

     Reading input from urea.ir.in

     Reading xml data from directory:

     ./pwscf.save/

     R & G space division:  proc/nbgrp/npool/nimage =       8
     Subspace diagonalization in iterative solution of the eigenvalue problem:
     a serial algorithm will be used

     file C.pbe-n-kjpaw_psl.1.0.0.UPF: wavefunction(s)  2S 2P renormalized
     file O.pbe-n-kjpaw_psl.0.1.UPF: wavefunction(s)  2P renormalized

     IMPORTANT: XC functional enforced from input :
     Exchange-correlation= PBE
                           (   1   4   3   4   0   0   0)
     Any further DFT definition will be discarded
     Please, verify this is what you really want


     Parallelization info
     --------------------
     sticks:   dense  smooth     PW     G-vecs:    dense   smooth      PW
     Min         827     393    109                42829    13982    2033
     Max         828     395    111                42832    13985    2034
     Sum        6621    3149    877               342641   111865   16265

     Using Slab Decomposition

     Reading collected, re-writing distributed wavefunctions in ./

     Number and degeneracy of irreps per q-point
       N         xq(1)         xq(2)         xq(3)   N irreps
       1   0.000000000   0.000000000   0.000000000      35
        1   1   1   1   1   1   1   1   1   1   1   1   1   1   1   1   1   1
   1   1   1   1   2   2   2   2   2   2   2   2   2   2   2   2   2

     Calculation of q =    0.0000000   0.0000000   0.0000000

     IR Phonon Calculation at gamma                                             

     bravais-lattice index     =            0
     lattice parameter (alat)  =      10.5296  a.u.
     unit-cell volume          =     969.1764 (a.u.)^3
     number of atoms/cell      =           16
     number of atomic types    =            4
     kinetic-energy cut-off    =      90.0000  Ry
     charge density cut-off    =     760.0000  Ry
     convergence threshold     =      1.0E-14
     beta                      =       0.7000
     number of iterations used =            8
     Exchange-correlation= PBE
                           (   1   4   3   4   0   0   0)


     celldm(1)=   10.52955  celldm(2)=    0.00000  celldm(3)=    0.00000
     celldm(4)=    0.00000  celldm(5)=    0.00000  celldm(6)=    0.00000

     crystal axes: (cart. coord. in units of alat)
               a(1) = (  0.9955  0.0000  0.0000 )  
               a(2) = (  0.0000  0.9955  0.0000 )  
               a(3) = (  0.0000  0.0000  0.8377 )  

     reciprocal axes: (cart. coord. in units 2 pi/alat)
               b(1) = (  1.0045  0.0000  0.0000 )  
               b(2) = (  0.0000  1.0045  0.0000 )  
               b(3) = (  0.0000  0.0000  1.1938 )  


     Atoms inside the unit cell: 

     Cartesian axes

     site n.  atom      mass           positions (alat units)
        1  O      15.9990   tau(    1) = (    0.00000    0.49776    0.50339  )
        2  O      15.9990   tau(    2) = (    0.49776    0.00000    0.33429  )
        3  N      14.0065   tau(    3) = (    0.14619    0.64395    0.14901  )
        4  N      14.0065   tau(    4) = (    0.64395    0.84932    0.68867  )
        5  N      14.0065   tau(    5) = (    0.84932    0.35156    0.14901  )
        6  N      14.0065   tau(    6) = (    0.35156    0.14619    0.68867  )
        7  C      12.0106   tau(    7) = (    0.00000    0.49776    0.27457  )
        8  C      12.0106   tau(    8) = (    0.49776    0.00000    0.56311  )
        9  H       1.0075   tau(    9) = (    0.25984    0.75760    0.23677  )
       10  H       1.0075   tau(   10) = (    0.75760    0.73567    0.60091  )
       11  H       1.0075   tau(   11) = (    0.73567    0.23792    0.23677  )
       12  H       1.0075   tau(   12) = (    0.23792    0.25984    0.60091  )
       13  H       1.0075   tau(   13) = (    0.14414    0.64190    0.80387  )
       14  H       1.0075   tau(   14) = (    0.64190    0.85137    0.03381  )
       15  H       1.0075   tau(   15) = (    0.85137    0.35362    0.80387  )
       16  H       1.0075   tau(   16) = (    0.35362    0.14414    0.03381  )

     Computing dynamical matrix for 
                    q = (   0.0000000   0.0000000   0.0000000 )

      9 Sym.Ops. (with q -> -q+G )


     G cutoff = 2134.3902  (  42832 G-vectors)     FFT grid: ( 96, 96, 80)
     G cutoff = 1011.0270  (  13983 G-vectors)  smooth grid: ( 64, 64, 54)
     number of k points=    24
                       cart. coord. in units 2pi/alat
        k(    1) = (   0.0000000   0.0000000   0.0000000), wk =   0.0133333
        k(    2) = (   0.0000000   0.0000000   0.1989619), wk =   0.0266667
        k(    3) = (   0.0000000   0.0000000   0.3979237), wk =   0.0266667
        k(    4) = (   0.0000000   0.0000000  -0.5968856), wk =   0.0133333
        k(    5) = (   0.0000000   0.2009014   0.0000000), wk =   0.0533333
        k(    6) = (   0.0000000   0.2009014   0.1989619), wk =   0.1066667
        k(    7) = (   0.0000000   0.2009014   0.3979237), wk =   0.1066667
        k(    8) = (   0.0000000   0.2009014  -0.5968856), wk =   0.0533333
        k(    9) = (   0.0000000   0.4018028   0.0000000), wk =   0.0533333
        k(   10) = (   0.0000000   0.4018028   0.1989619), wk =   0.1066667
        k(   11) = (   0.0000000   0.4018028   0.3979237), wk =   0.1066667
        k(   12) = (   0.0000000   0.4018028  -0.5968856), wk =   0.0533333
        k(   13) = (   0.2009014   0.2009014   0.0000000), wk =   0.0533333
        k(   14) = (   0.2009014   0.2009014   0.1989619), wk =   0.1066667
        k(   15) = (   0.2009014   0.2009014   0.3979237), wk =   0.1066667
        k(   16) = (   0.2009014   0.2009014  -0.5968856), wk =   0.0533333
        k(   17) = (   0.2009014   0.4018028   0.0000000), wk =   0.1066667
        k(   18) = (   0.2009014   0.4018028   0.1989619), wk =   0.2133333
        k(   19) = (   0.2009014   0.4018028   0.3979237), wk =   0.2133333
        k(   20) = (   0.2009014   0.4018028  -0.5968856), wk =   0.1066667
        k(   21) = (   0.4018028   0.4018028   0.0000000), wk =   0.0533333
        k(   22) = (   0.4018028   0.4018028   0.1989619), wk =   0.1066667
        k(   23) = (   0.4018028   0.4018028   0.3979237), wk =   0.1066667
        k(   24) = (   0.4018028   0.4018028  -0.5968856), wk =   0.0533333

     PseudoPot. # 1 for N  read from file:
     /home/john/Data/PseudoPotentials/SSSP_1.3.0_Efficiency/N.pbe-n-radius_5.UPF
     MD5 check sum: 16739722b17309cd8fe442a2ace49922
     Pseudo is Ultrasoft + core correction, Zval =  5.0
     Generated using "atomic" code by A. Dal Corso  v.5.1
     Using radial grid of 1085 points,  4 beta functions with: 
                l(1) =   0
                l(2) =   0
                l(3) =   1
                l(4) =   1
     Q(r) pseudized with 0 coefficients 


     PseudoPot. # 2 for H  read from file:
     /home/john/Data/PseudoPotentials/SSSP_1.3.0_Efficiency/H.pbe-rrkjus_psl.1.0.0.UPF
     MD5 check sum: f52b6d4d1c606e5624b1dc7b2218f220
     Pseudo is Ultrasoft, Zval =  1.0
     Generated using "atomic" code by A. Dal Corso  v.5.1
     Using radial grid of  929 points,  2 beta functions with: 
                l(1) =   0
                l(2) =   0
     Q(r) pseudized with 0 coefficients 


     PseudoPot. # 3 for C  read from file:
     /home/john/Data/PseudoPotentials/SSSP_1.3.0_Efficiency/C.pbe-n-kjpaw_psl.1.0.0.UPF
     MD5 check sum: 5d2aebdfa2cae82b50a7e79e9516da0f
     Pseudo is Projector augmented-wave + core cor, Zval =  4.0
     Generated using "atomic" code by A. Dal Corso  v.5.1
     Shape of augmentation charge: PSQ
     Using radial grid of 1073 points,  4 beta functions with: 
                l(1) =   0
                l(2) =   0
                l(3) =   1
                l(4) =   1
     Q(r) pseudized with 0 coefficients 


     PseudoPot. # 4 for O  read from file:
     /home/john/Data/PseudoPotentials/SSSP_1.3.0_Efficiency/O.pbe-n-kjpaw_psl.0.1.UPF
     MD5 check sum: 0234752ac141de4415c5fc33072bef88
     Pseudo is Projector augmented-wave + core cor, Zval =  6.0
     Generated using "atomic" code by A. Dal Corso  v.5.0.99 svn rev. 10869
     Shape of augmentation charge: BESSEL
     Using radial grid of 1095 points,  4 beta functions with: 
                l(1) =   0
                l(2) =   0
                l(3) =   1
                l(4) =   1
     Q(r) pseudized with 0 coefficients 


     Mode symmetry, D_2d (-42m) point group:


     Electric field:
     Dielectric constant
     Born effective charges as d Force / d E


     Atomic displacements:
     There are   35 irreducible representations

     Representation     1      1 modes -  To be done

     Representation     2      1 modes -  To be done

     Representation     3      1 modes -  To be done

     Representation     4      1 modes -  To be done

     Representation     5      1 modes -  To be done

     Representation     6      1 modes -  To be done

     Representation     7      1 modes -  To be done

     Representation     8      1 modes -  To be done

     Representation     9      1 modes -  To be done

     Representation    10      1 modes -  To be done

     Representation    11      1 modes -  To be done

     Representation    12      1 modes -  To be done

     Representation    13      1 modes -  To be done

     Representation    14      1 modes -  To be done

     Representation    15      1 modes -  To be done

     Representation    16      1 modes -  To be done

     Representation    17      1 modes -  To be done

     Representation    18      1 modes -  To be done

     Representation    19      1 modes -  To be done

     Representation    20      1 modes -  To be done

     Representation    21      1 modes -  To be done

     Representation    22      1 modes -  To be done

     Representation    23      2 modes -  To be done

     Representation    24      2 modes -  To be done

     Representation    25      2 modes -  To be done

     Representation    26      2 modes -  To be done

     Representation    27      2 modes -  To be done

     Representation    28      2 modes -  To be done

     Representation    29      2 modes -  To be done

     Representation    30      2 modes -  To be done

     Representation    31      2 modes -  To be done

     Representation    32      2 modes -  To be done

     Representation    33      2 modes -  To be done

     Representation    34      2 modes -  To be done

     Representation    35      2 modes -  To be done



     Alpha used in Ewald sum =   2.8000

     Computing d3hess.

     Differentiation step:           0.000020000000
     DFT-D3 version:    6
     DFT-D3 threebody: F
     Using a cheap algorithm for q=0,0,0 only

 doing analytical gradient for version...           6
 |G(force)| =   3.0495064383310531E-002  supercell gradient
 |G(force)| =   3.5769788088474809E-003  supercell gradient for atoms in the unit cell 
 |G(force)| =   3.5769788088474809E-003  unit cell gradient

     Number of images for CN:    4   4   5

     Number of images for VdW:   10  10  11

     DFT-D3 dispersion forces in the unit cell:
     atom    1 type  4   force =    -0.00000000    0.00000000    0.00046348
     atom    2 type  4   force =     0.00000000   -0.00000000   -0.00046348
     atom    3 type  1   force =     0.00027776    0.00027776   -0.00031548
     atom    4 type  1   force =     0.00027776   -0.00027776    0.00031549
     atom    5 type  1   force =    -0.00027776   -0.00027777   -0.00031549
     atom    6 type  1   force =    -0.00027777    0.00027776    0.00031549
     atom    7 type  3   force =    -0.00000000    0.00000001    0.00015015
     atom    8 type  3   force =     0.00000000   -0.00000000   -0.00015015
     atom    9 type  2   force =     0.00009673    0.00009674    0.00000314
     atom   10 type  2   force =     0.00009674   -0.00009674   -0.00000314
     atom   11 type  2   force =    -0.00009674   -0.00009674    0.00000314
     atom   12 type  2   force =    -0.00009674    0.00009674   -0.00000314
     atom   13 type  2   force =     0.00010753    0.00010753   -0.00019898
     atom   14 type  2   force =     0.00010753   -0.00010753    0.00019898
     atom   15 type  2   force =    -0.00010753   -0.00010753   -0.00019898
     atom   16 type  2   force =    -0.00010753    0.00010753    0.00019898

     Number of cells replicated along each semiaxis:   10  10  11

     Number of cells used for Hessian allocations:    0   0   0
     Number of cells in the supercell (Hessian):         1
     Number of atoms in the supercell (Hessian):        16
     Hessian allocation dimensions:      2304

     Three body terms in DFT-D3 disabled for Hessian calculation
     Displacement step:    1   1   (+) 

 doing analytical gradient O(N^2) ...
 |G(force)| =   3.5769693964161123E-003
 |G(stress)|=   1.1844263700773867E-002
     Displacement step:    1   1   (-) 

 doing analytical gradient O(N^2) ...
 |G(force)| =   3.5769693964161154E-003
 |G(stress)|=   1.1844263700773867E-002
 |H(unit cell)| =   2.2712294002418222E-008
     Displacement step:    1   2   (+) 

 doing analytical gradient O(N^2) ...
 |G(force)| =   3.5769693964161093E-003
 |G(stress)|=   1.1844263700773941E-002
     Displacement step:    1   2   (-) 

 doing analytical gradient O(N^2) ...
 |G(force)| =   3.5769693964161162E-003
 |G(stress)|=   1.1844263700773806E-002
 |H(unit cell)| =   2.2712294006237266E-008
     Displacement step:    1   3   (+) 

 doing analytical gradient O(N^2) ...
 |G(force)| =   3.5769521972889959E-003
 |G(stress)|=   1.1844264206607903E-002
     Displacement step:    1   3   (-) 

 doing analytical gradient O(N^2) ...
 |G(force)| =   3.5769800168589847E-003
 |G(stress)|=   1.1844261913449861E-002
 |H(unit cell)| =   3.2748256219580717E-008
     Displacement step:    2   1   (+) 

 doing analytical gradient O(N^2) ...
 |G(force)| =   3.5769693964161253E-003
 |G(stress)|=   1.1844263700773922E-002
     Displacement step:    2   1   (-) 

 doing analytical gradient O(N^2) ...
 |G(force)| =   3.5769693964161227E-003
 |G(stress)|=   1.1844263700773875E-002
 |H(unit cell)| =   2.2712294012100957E-008
     Displacement step:    2   2   (+) 

 doing analytical gradient O(N^2) ...
 |G(force)| =   3.5769693964161206E-003
 |G(stress)|=   1.1844263700773783E-002
     Displacement step:    2   2   (-) 

 doing analytical gradient O(N^2) ...
 |G(force)| =   3.5769693964161223E-003
 |G(stress)|=   1.1844263700774007E-002
 |H(unit cell)| =   2.2712294005953374E-008
     Displacement step:    2   3   (+) 

 doing analytical gradient O(N^2) ...
 |G(force)| =   3.5769800168589886E-003
 |G(stress)|=   1.1844261913449927E-002
     Displacement step:    2   3   (-) 

 doing analytical gradient O(N^2) ...
 |G(force)| =   3.5769521972889998E-003
 |G(stress)|=   1.1844264206607858E-002
 |H(unit cell)| =   3.2748256221389238E-008
     Displacement step:    3   1   (+) 

 doing analytical gradient O(N^2) ...
 |G(force)| =   3.5769620358624323E-003
 |G(stress)|=   1.1844266575509844E-002
     Displacement step:    3   1   (-) 

 doing analytical gradient O(N^2) ...
 |G(force)| =   3.5769756940325333E-003
 |G(stress)|=   1.1844261917448896E-002
 |H(unit cell)| =   3.0416113045390655E-008
     Displacement step:    3   2   (+) 

 doing analytical gradient O(N^2) ...
 |G(force)| =   3.5769620358624297E-003
 |G(stress)|=   1.1844266575509858E-002
     Displacement step:    3   2   (-) 

 doing analytical gradient O(N^2) ...
 |G(force)| =   3.5769756940325346E-003
 |G(stress)|=   1.1844261917448817E-002
 |H(unit cell)| =   3.0416113052105297E-008
     Displacement step:    3   3   (+) 

 doing analytical gradient O(N^2) ...
 |G(force)| =   3.5769689681003683E-003
 |G(stress)|=   1.1844263758002517E-002
     Displacement step:    3   3   (-) 

 doing analytical gradient O(N^2) ...
 |G(force)| =   3.5769670422578239E-003
 |G(stress)|=   1.1844264940142079E-002
 |H(unit cell)| =   3.5594094744902973E-008
     Displacement step:    4   1   (+) 

 doing analytical gradient O(N^2) ...
 |G(force)| =   3.5769620358624358E-003
 |G(stress)|=   1.1844266575509913E-002
     Displacement step:    4   1   (-) 

 doing analytical gradient O(N^2) ...
 |G(force)| =   3.5769756940325324E-003
 |G(stress)|=   1.1844261917448935E-002
 |H(unit cell)| =   3.0416113042215142E-008
     Displacement step:    4   2   (+) 

 doing analytical gradient O(N^2) ...
 |G(force)| =   3.5769756940325259E-003
 |G(stress)|=   1.1844261917448883E-002
     Displacement step:    4   2   (-) 

 doing analytical gradient O(N^2) ...
 |G(force)| =   3.5769620358624358E-003
 |G(stress)|=   1.1844266575509931E-002
 |H(unit cell)| =   3.0416113037357732E-008
     Displacement step:    4   3   (+) 

 doing analytical gradient O(N^2) ...
 |G(force)| =   3.5769670422578300E-003
 |G(stress)|=   1.1844264940142204E-002
     Displacement step:    4   3   (-) 

 doing analytical gradient O(N^2) ...
 |G(force)| =   3.5769689681003818E-003
 |G(stress)|=   1.1844263758002547E-002
 |H(unit cell)| =   3.5594094741645569E-008
     Displacement step:    5   1   (+) 

 doing analytical gradient O(N^2) ...
 |G(force)| =   3.5769756940325307E-003
 |G(stress)|=   1.1844261917448917E-002
     Displacement step:    5   1   (-) 

 doing analytical gradient O(N^2) ...
 |G(force)| =   3.5769620358624336E-003
 |G(stress)|=   1.1844266575509806E-002
 |H(unit cell)| =   3.0416113040768667E-008
     Displacement step:    5   2   (+) 

 doing analytical gradient O(N^2) ...
 |G(force)| =   3.5769756940325355E-003
 |G(stress)|=   1.1844261917448961E-002
     Displacement step:    5   2   (-) 

 doing analytical gradient O(N^2) ...
 |G(force)| =   3.5769620358624306E-003
 |G(stress)|=   1.1844266575509806E-002
 |H(unit cell)| =   3.0416113044835729E-008
     Displacement step:    5   3   (+) 

 doing analytical gradient O(N^2) ...
 |G(force)| =   3.5769689681003749E-003
 |G(stress)|=   1.1844263758002561E-002
     Displacement step:    5   3   (-) 

 doing analytical gradient O(N^2) ...
 |G(force)| =   3.5769670422578339E-003
 |G(stress)|=   1.1844264940142358E-002
 |H(unit cell)| =   3.5594094745393299E-008
     Displacement step:    6   1   (+) 

 doing analytical gradient O(N^2) ...
 |G(force)| =   3.5769756940325294E-003
 |G(stress)|=   1.1844261917448955E-002
     Displacement step:    6   1   (-) 

 doing analytical gradient O(N^2) ...
 |G(force)| =   3.5769620358624297E-003
 |G(stress)|=   1.1844266575509896E-002
 |H(unit cell)| =   3.0416113041255480E-008
     Displacement step:    6   2   (+) 

 doing analytical gradient O(N^2) ...
 |G(force)| =   3.5769620358624288E-003
 |G(stress)|=   1.1844266575509884E-002
     Displacement step:    6   2   (-) 

 doing analytical gradient O(N^2) ...
 |G(force)| =   3.5769756940325320E-003
 |G(stress)|=   1.1844261917449007E-002
 |H(unit cell)| =   3.0416113037590236E-008
     Displacement step:    6   3   (+) 

 doing analytical gradient O(N^2) ...
 |G(force)| =   3.5769670422578326E-003
 |G(stress)|=   1.1844264940142308E-002
     Displacement step:    6   3   (-) 

 doing analytical gradient O(N^2) ...
 |G(force)| =   3.5769689681003788E-003
 |G(stress)|=   1.1844263758002661E-002
 |H(unit cell)| =   3.5594094739656636E-008
     Displacement step:    7   1   (+) 

 doing analytical gradient O(N^2) ...
 |G(force)| =   3.5769746846807077E-003
 |G(stress)|=   1.1844263197500031E-002
     Displacement step:    7   1   (-) 

 doing analytical gradient O(N^2) ...
 |G(force)| =   3.5769746846807133E-003
 |G(stress)|=   1.1844263197499955E-002
 |H(unit cell)| =   3.4765025073155276E-008
     Displacement step:    7   2   (+) 

 doing analytical gradient O(N^2) ...
 |G(force)| =   3.5769746846807150E-003
 |G(stress)|=   1.1844263197500052E-002
     Displacement step:    7   2   (-) 

 doing analytical gradient O(N^2) ...
 |G(force)| =   3.5769746846807124E-003
 |G(stress)|=   1.1844263197499937E-002
 |H(unit cell)| =   3.4765025076679900E-008
     Displacement step:    7   3   (+) 

 doing analytical gradient O(N^2) ...
 |G(force)| =   3.5769627100686336E-003
 |G(stress)|=   1.1844264179875229E-002
     Displacement step:    7   3   (-) 

 doing analytical gradient O(N^2) ...
 |G(force)| =   3.5769695037953424E-003
 |G(stress)|=   1.1844261352707516E-002
 |H(unit cell)| =   2.8953721010903395E-008
     Displacement step:    8   1   (+) 

 doing analytical gradient O(N^2) ...
 |G(force)| =   3.5769746846807025E-003
 |G(stress)|=   1.1844263197500104E-002
     Displacement step:    8   1   (-) 

 doing analytical gradient O(N^2) ...
 |G(force)| =   3.5769746846807146E-003
 |G(stress)|=   1.1844263197499991E-002
 |H(unit cell)| =   3.4765025076765172E-008
     Displacement step:    8   2   (+) 

 doing analytical gradient O(N^2) ...
 |G(force)| =   3.5769746846807098E-003
 |G(stress)|=   1.1844263197499975E-002
     Displacement step:    8   2   (-) 

 doing analytical gradient O(N^2) ...
 |G(force)| =   3.5769746846807081E-003
 |G(stress)|=   1.1844263197500097E-002
 |H(unit cell)| =   3.4765025080380176E-008
     Displacement step:    8   3   (+) 

 doing analytical gradient O(N^2) ...
 |G(force)| =   3.5769695037953407E-003
 |G(stress)|=   1.1844261352707606E-002
     Displacement step:    8   3   (-) 

 doing analytical gradient O(N^2) ...
 |G(force)| =   3.5769627100686401E-003
 |G(stress)|=   1.1844264179875205E-002
 |H(unit cell)| =   2.8953721013485257E-008
     Displacement step:    9   1   (+) 

 doing analytical gradient O(N^2) ...
 |G(force)| =   3.5769664833756720E-003
 |G(stress)|=   1.1844262961342330E-002
     Displacement step:    9   1   (-) 

 doing analytical gradient O(N^2) ...
 |G(force)| =   3.5769697443790442E-003
 |G(stress)|=   1.1844263698472527E-002
 |H(unit cell)| =   1.8831602785178911E-008
     Displacement step:    9   2   (+) 

 doing analytical gradient O(N^2) ...
 |G(force)| =   3.5769664833756741E-003
 |G(stress)|=   1.1844262961342281E-002
     Displacement step:    9   2   (-) 

 doing analytical gradient O(N^2) ...
 |G(force)| =   3.5769697443790438E-003
 |G(stress)|=   1.1844263698472536E-002
 |H(unit cell)| =   1.8831602781149929E-008
     Displacement step:    9   3   (+) 

 doing analytical gradient O(N^2) ...
 |G(force)| =   3.5769696668637926E-003
 |G(stress)|=   1.1844262653173022E-002
     Displacement step:    9   3   (-) 

 doing analytical gradient O(N^2) ...
 |G(force)| =   3.5769656939980258E-003
 |G(stress)|=   1.1844263803362795E-002
 |H(unit cell)| =   1.5772805506532044E-008
     Displacement step:   10   1   (+) 

 doing analytical gradient O(N^2) ...
 |G(force)| =   3.5769664833756676E-003
 |G(stress)|=   1.1844262961342375E-002
     Displacement step:   10   1   (-) 

 doing analytical gradient O(N^2) ...
 |G(force)| =   3.5769697443790451E-003
 |G(stress)|=   1.1844263698472624E-002
 |H(unit cell)| =   1.8831602783292618E-008
     Displacement step:   10   2   (+) 

 doing analytical gradient O(N^2) ...
 |G(force)| =   3.5769697443790481E-003
 |G(stress)|=   1.1844263698472635E-002
     Displacement step:   10   2   (-) 

 doing analytical gradient O(N^2) ...
 |G(force)| =   3.5769664833756707E-003
 |G(stress)|=   1.1844262961342323E-002
 |H(unit cell)| =   1.8831602781895645E-008
     Displacement step:   10   3   (+) 

 doing analytical gradient O(N^2) ...
 |G(force)| =   3.5769656939980267E-003
 |G(stress)|=   1.1844263803362886E-002
     Displacement step:   10   3   (-) 

 doing analytical gradient O(N^2) ...
 |G(force)| =   3.5769696668637922E-003
 |G(stress)|=   1.1844262653173062E-002
 |H(unit cell)| =   1.5772805503561205E-008
     Displacement step:   11   1   (+) 

 doing analytical gradient O(N^2) ...
 |G(force)| =   3.5769697443790451E-003
 |G(stress)|=   1.1844263698472603E-002
     Displacement step:   11   1   (-) 

 doing analytical gradient O(N^2) ...
 |G(force)| =   3.5769664833756780E-003
 |G(stress)|=   1.1844262961342337E-002
 |H(unit cell)| =   1.8831602777203837E-008
     Displacement step:   11   2   (+) 

 doing analytical gradient O(N^2) ...
 |G(force)| =   3.5769697443790442E-003
 |G(stress)|=   1.1844263698472622E-002
     Displacement step:   11   2   (-) 

 doing analytical gradient O(N^2) ...
 |G(force)| =   3.5769664833756737E-003
 |G(stress)|=   1.1844262961342372E-002
 |H(unit cell)| =   1.8831602780399822E-008
     Displacement step:   11   3   (+) 

 doing analytical gradient O(N^2) ...
 |G(force)| =   3.5769696668637987E-003
 |G(stress)|=   1.1844262653173144E-002
     Displacement step:   11   3   (-) 

 doing analytical gradient O(N^2) ...
 |G(force)| =   3.5769656939980245E-003
 |G(stress)|=   1.1844263803362776E-002
 |H(unit cell)| =   1.5772805496429721E-008
     Displacement step:   12   1   (+) 

 doing analytical gradient O(N^2) ...
 |G(force)| =   3.5769697443790494E-003
 |G(stress)|=   1.1844263698472690E-002
     Displacement step:   12   1   (-) 

 doing analytical gradient O(N^2) ...
 |G(force)| =   3.5769664833756746E-003
 |G(stress)|=   1.1844262961342295E-002
 |H(unit cell)| =   1.8831602776443764E-008
     Displacement step:   12   2   (+) 

 doing analytical gradient O(N^2) ...
 |G(force)| =   3.5769664833756741E-003
 |G(stress)|=   1.1844262961342349E-002
     Displacement step:   12   2   (-) 

 doing analytical gradient O(N^2) ...
 |G(force)| =   3.5769697443790503E-003
 |G(stress)|=   1.1844263698472673E-002
 |H(unit cell)| =   1.8831602777976897E-008
     Displacement step:   12   3   (+) 

 doing analytical gradient O(N^2) ...
 |G(force)| =   3.5769656939980245E-003
 |G(stress)|=   1.1844263803362873E-002
     Displacement step:   12   3   (-) 

 doing analytical gradient O(N^2) ...
 |G(force)| =   3.5769696668638013E-003
 |G(stress)|=   1.1844262653173140E-002
 |H(unit cell)| =   1.5772805498436153E-008
     Displacement step:   13   1   (+) 

 doing analytical gradient O(N^2) ...
 |G(force)| =   3.5769654539438158E-003
 |G(stress)|=   1.1844263586475026E-002
     Displacement step:   13   1   (-) 

 doing analytical gradient O(N^2) ...
 |G(force)| =   3.5769692022497865E-003
 |G(stress)|=   1.1844262227254553E-002
 |H(unit cell)| =   9.3487078330974511E-009
     Displacement step:   13   2   (+) 

 doing analytical gradient O(N^2) ...
 |G(force)| =   3.5769654539438180E-003
 |G(stress)|=   1.1844263586475001E-002
     Displacement step:   13   2   (-) 

 doing analytical gradient O(N^2) ...
 |G(force)| =   3.5769692022497874E-003
 |G(stress)|=   1.1844262227254550E-002
 |H(unit cell)| =   9.3487078392637368E-009
     Displacement step:   13   3   (+) 

 doing analytical gradient O(N^2) ...
 |G(force)| =   3.5769711989595446E-003
 |G(stress)|=   1.1844263101091714E-002
     Displacement step:   13   3   (-) 

 doing analytical gradient O(N^2) ...
 |G(force)| =   3.5769638694182638E-003
 |G(stress)|=   1.1844262512375681E-002
 |H(unit cell)| =   1.6849615656673481E-008
     Displacement step:   14   1   (+) 

 doing analytical gradient O(N^2) ...
 |G(force)| =   3.5769654539438132E-003
 |G(stress)|=   1.1844263586475060E-002
     Displacement step:   14   1   (-) 

 doing analytical gradient O(N^2) ...
 |G(force)| =   3.5769692022497887E-003
 |G(stress)|=   1.1844262227254560E-002
 |H(unit cell)| =   9.3487078329430992E-009
     Displacement step:   14   2   (+) 

 doing analytical gradient O(N^2) ...
 |G(force)| =   3.5769692022497891E-003
 |G(stress)|=   1.1844262227254536E-002
     Displacement step:   14   2   (-) 

 doing analytical gradient O(N^2) ...
 |G(force)| =   3.5769654539438175E-003
 |G(stress)|=   1.1844263586475071E-002
 |H(unit cell)| =   9.3487078322111354E-009
     Displacement step:   14   3   (+) 

 doing analytical gradient O(N^2) ...
 |G(force)| =   3.5769638694182586E-003
 |G(stress)|=   1.1844262512375799E-002
     Displacement step:   14   3   (-) 

 doing analytical gradient O(N^2) ...
 |G(force)| =   3.5769711989595498E-003
 |G(stress)|=   1.1844263101091726E-002
 |H(unit cell)| =   1.6849615671672691E-008
     Displacement step:   15   1   (+) 

 doing analytical gradient O(N^2) ...
 |G(force)| =   3.5769692022497848E-003
 |G(stress)|=   1.1844262227254546E-002
     Displacement step:   15   1   (-) 

 doing analytical gradient O(N^2) ...
 |G(force)| =   3.5769654539438162E-003
 |G(stress)|=   1.1844263586475024E-002
 |H(unit cell)| =   9.3487078403556831E-009
     Displacement step:   15   2   (+) 

 doing analytical gradient O(N^2) ...
 |G(force)| =   3.5769692022497817E-003
 |G(stress)|=   1.1844262227254564E-002
     Displacement step:   15   2   (-) 

 doing analytical gradient O(N^2) ...
 |G(force)| =   3.5769654539438175E-003
 |G(stress)|=   1.1844263586475043E-002
 |H(unit cell)| =   9.3487078351910337E-009
     Displacement step:   15   3   (+) 

 doing analytical gradient O(N^2) ...
 |G(force)| =   3.5769711989595437E-003
 |G(stress)|=   1.1844263101091670E-002
     Displacement step:   15   3   (-) 

 doing analytical gradient O(N^2) ...
 |G(force)| =   3.5769638694182634E-003
 |G(stress)|=   1.1844262512375777E-002
 |H(unit cell)| =   1.6849615660542443E-008
     Displacement step:   16   1   (+) 

 doing analytical gradient O(N^2) ...
 |G(force)| =   3.5769692022497878E-003
 |G(stress)|=   1.1844262227254541E-002
     Displacement step:   16   1   (-) 

 doing analytical gradient O(N^2) ...
 |G(force)| =   3.5769654539438145E-003
 |G(stress)|=   1.1844263586475039E-002
 |H(unit cell)| =   9.3487078355286028E-009
     Displacement step:   16   2   (+) 

 doing analytical gradient O(N^2) ...
 |G(force)| =   3.5769654539438158E-003
 |G(stress)|=   1.1844263586475043E-002
     Displacement step:   16   2   (-) 

 doing analytical gradient O(N^2) ...
 |G(force)| =   3.5769692022497852E-003
 |G(stress)|=   1.1844262227254539E-002
 |H(unit cell)| =   9.3487078363813681E-009
     Displacement step:   16   3   (+) 

 doing analytical gradient O(N^2) ...
 |G(force)| =   3.5769638694182638E-003
 |G(stress)|=   1.1844262512375785E-002
     Displacement step:   16   3   (-) 

 doing analytical gradient O(N^2) ...
 |G(force)| =   3.5769711989595450E-003
 |G(stress)|=   1.1844263101091631E-002
 |H(unit cell)| =   1.6849615665594270E-008

     Writing Hessian on file: ./automatic.hess
     force_dftd3  :      0.09s CPU      0.09s WALL (       1 calls)
     hessian_dftd :      2.69s CPU      3.00s WALL (       1 calls)

     Reading Grimme-D3 Hessian from file: ./automatic.hess

     Number of cells replicated along each semiaxis:    0   0   0
     Number of cells in the supercell:         1
     Number of atoms in the supercell:        16
     Hessian allocation dimension:      2304

     Grimme-D3 Hessian read 

     Computing dynamical matrix for q:     0.000000    0.000000    0.000000

     Writing Hessian on file dynamical.true.dat

     Dynamical matrix computed
     PHONON       :   1m 9.79s CPU   1m11.24s WALL


     Electric Fields Calculation

      iter #   1 total cpu time :   159.7 secs   av.it.:   7.5
      thresh= 1.000E-02 alpha_mix =  0.700 |ddv_scf|^2 =  2.501E-08

      iter #   2 total cpu time :   200.4 secs   av.it.:  16.0
      thresh= 1.581E-05 alpha_mix =  0.700 |ddv_scf|^2 =  2.349E-08

      iter #   3 total cpu time :   239.9 secs   av.it.:  15.5
      thresh= 1.533E-05 alpha_mix =  0.700 |ddv_scf|^2 =  1.559E-09

      iter #   4 total cpu time :   278.2 secs   av.it.:  14.9
      thresh= 3.948E-06 alpha_mix =  0.700 |ddv_scf|^2 =  1.926E-10

      iter #   5 total cpu time :   318.1 secs   av.it.:  15.6
      thresh= 1.388E-06 alpha_mix =  0.700 |ddv_scf|^2 =  4.991E-11

      iter #   6 total cpu time :   357.0 secs   av.it.:  15.2
      thresh= 7.065E-07 alpha_mix =  0.700 |ddv_scf|^2 =  1.396E-12

      iter #   7 total cpu time :   396.3 secs   av.it.:  15.3
      thresh= 1.181E-07 alpha_mix =  0.700 |ddv_scf|^2 =  7.526E-14

      iter #   8 total cpu time :   436.7 secs   av.it.:  15.3
      thresh= 2.743E-08 alpha_mix =  0.700 |ddv_scf|^2 =  2.726E-15

     End of electric fields calculation

          Dielectric constant in cartesian axis 

          (       2.279791825       0.000000000       0.000000000 )
          (       0.000000000       2.279791825       0.000000000 )
          (       0.000000000       0.000000000       2.665769594 )

          Effective charges (d Force / dE) in cartesian axis without acoustic sum rule applied (asr)

           atom    1  O     Mean Z*:       -1.50293
      Ex  (       -0.93454        0.13379        0.00000 )
      Ey  (        0.13379       -0.93454        0.00000 )
      Ez  (        0.00000        0.00000       -2.63972 )
           atom    2  O     Mean Z*:       -1.50293
      Ex  (       -0.93454       -0.13379        0.00000 )
      Ey  (       -0.13379       -0.93454        0.00000 )
      Ez  (        0.00000        0.00000       -2.63972 )
           atom    3  N     Mean Z*:       -1.08140
      Ex  (       -1.10321       -0.46182        0.25044 )
      Ey  (       -0.46182       -1.10321        0.25044 )
      Ez  (        0.26254        0.26254       -1.03779 )
           atom    4  N     Mean Z*:       -1.08140
      Ex  (       -1.10321        0.46182       -0.25044 )
      Ey  (        0.46182       -1.10321        0.25044 )
      Ez  (       -0.26254        0.26254       -1.03779 )
           atom    5  N     Mean Z*:       -1.08140
      Ex  (       -1.10321       -0.46182       -0.25044 )
      Ey  (       -0.46182       -1.10321       -0.25044 )
      Ez  (       -0.26254       -0.26254       -1.03779 )
           atom    6  N     Mean Z*:       -1.08140
      Ex  (       -1.10321        0.46182        0.25044 )
      Ey  (        0.46182       -1.10321       -0.25044 )
      Ez  (        0.26254       -0.26254       -1.03779 )
           atom    7  C     Mean Z*:        1.84776
      Ex  (        1.35793        1.07043        0.00000 )
      Ey  (        1.07043        1.35793        0.00000 )
      Ez  (        0.00000        0.00000        2.82744 )
           atom    8  C     Mean Z*:        1.84776
      Ex  (        1.35793       -1.07043        0.00000 )
      Ey  (       -1.07043        1.35793        0.00000 )
      Ez  (        0.00000        0.00000        2.82744 )
           atom    9  H     Mean Z*:        0.47008
      Ex  (        0.57763        0.27851        0.16527 )
      Ey  (        0.27851        0.57763        0.16527 )
      Ez  (        0.19263        0.19263        0.25499 )
           atom   10  H     Mean Z*:        0.47008
      Ex  (        0.57763       -0.27851       -0.16527 )
      Ey  (       -0.27851        0.57763        0.16527 )
      Ez  (       -0.19263        0.19263        0.25499 )
           atom   11  H     Mean Z*:        0.47008
      Ex  (        0.57763        0.27851       -0.16527 )
      Ey  (        0.27851        0.57763       -0.16527 )
      Ez  (       -0.19263       -0.19263        0.25499 )
           atom   12  H     Mean Z*:        0.47008
      Ex  (        0.57763       -0.27851        0.16527 )
      Ey  (       -0.27851        0.57763       -0.16527 )
      Ez  (        0.19263       -0.19263        0.25499 )
           atom   13  H     Mean Z*:        0.43982
      Ex  (        0.31467       -0.07986        0.03652 )
      Ey  (       -0.07986        0.31467        0.03652 )
      Ez  (        0.10197        0.10197        0.69011 )
           atom   14  H     Mean Z*:        0.43982
      Ex  (        0.31467        0.07986       -0.03652 )
      Ey  (        0.07986        0.31467        0.03652 )
      Ez  (       -0.10197        0.10197        0.69011 )
           atom   15  H     Mean Z*:        0.43982
      Ex  (        0.31467       -0.07986       -0.03652 )
      Ey  (       -0.07986        0.31467       -0.03652 )
      Ez  (       -0.10197       -0.10197        0.69011 )
           atom   16  H     Mean Z*:        0.43982
      Ex  (        0.31467        0.07986        0.03652 )
      Ey  (        0.07986        0.31467       -0.03652 )
      Ez  (        0.10197       -0.10197        0.69011 )

          Effective charges Sum: Mean:        0.00366
              0.00317       -0.00000        0.00000
              0.00000        0.00317        0.00000
             -0.00000       -0.00000        0.00465

          Effective charges (d Force / dE) in cartesian axis with asr applied: 
           atom    1  O     Mean Z*:       -1.50316
      E*x (       -0.93474        0.13379        0.00000 )
      E*y (        0.13379       -0.93474        0.00000 )
      E*z (        0.00000       -0.00000       -2.64001 )
           atom    2  O     Mean Z*:       -1.50316
      E*x (       -0.93474       -0.13379        0.00000 )
      E*y (       -0.13379       -0.93474        0.00000 )
      E*z (        0.00000       -0.00000       -2.64001 )
           atom    3  N     Mean Z*:       -1.08163
      E*x (       -1.10340       -0.46182        0.25044 )
      E*y (       -0.46182       -1.10340        0.25044 )
      E*z (        0.26254        0.26254       -1.03808 )
           atom    4  N     Mean Z*:       -1.08163
      E*x (       -1.10340        0.46182       -0.25044 )
      E*y (        0.46182       -1.10340        0.25044 )
      E*z (       -0.26254        0.26254       -1.03808 )
           atom    5  N     Mean Z*:       -1.08163
      E*x (       -1.10340       -0.46182       -0.25044 )
      E*y (       -0.46182       -1.10340       -0.25044 )
      E*z (       -0.26254       -0.26254       -1.03808 )
           atom    6  N     Mean Z*:       -1.08163
      E*x (       -1.10340        0.46182        0.25044 )
      E*y (        0.46182       -1.10340       -0.25044 )
      E*z (        0.26254       -0.26254       -1.03808 )
           atom    7  C     Mean Z*:        1.84753
      E*x (        1.35773        1.07043        0.00000 )
      E*y (        1.07043        1.35773        0.00000 )
      E*z (        0.00000       -0.00000        2.82715 )
           atom    8  C     Mean Z*:        1.84753
      E*x (        1.35773       -1.07043        0.00000 )
      E*y (       -1.07043        1.35773        0.00000 )
      E*z (        0.00000       -0.00000        2.82715 )
           atom    9  H     Mean Z*:        0.46985
      E*x (        0.57743        0.27851        0.16527 )
      E*y (        0.27851        0.57743        0.16527 )
      E*z (        0.19263        0.19263        0.25470 )
           atom   10  H     Mean Z*:        0.46985
      E*x (        0.57743       -0.27851       -0.16527 )
      E*y (       -0.27851        0.57743        0.16527 )
      E*z (       -0.19263        0.19263        0.25470 )
           atom   11  H     Mean Z*:        0.46985
      E*x (        0.57743        0.27851       -0.16527 )
      E*y (        0.27851        0.57743       -0.16527 )
      E*z (       -0.19263       -0.19263        0.25470 )
           atom   12  H     Mean Z*:        0.46985
      E*x (        0.57743       -0.27851        0.16527 )
      E*y (       -0.27851        0.57743       -0.16527 )
      E*z (        0.19263       -0.19263        0.25470 )
           atom   13  H     Mean Z*:        0.43959
      E*x (        0.31448       -0.07986        0.03652 )
      E*y (       -0.07986        0.31448        0.03652 )
      E*z (        0.10197        0.10197        0.68982 )
           atom   14  H     Mean Z*:        0.43959
      E*x (        0.31448        0.07986       -0.03652 )
      E*y (        0.07986        0.31448        0.03652 )
      E*z (       -0.10197        0.10197        0.68982 )
           atom   15  H     Mean Z*:        0.43959
      E*x (        0.31448       -0.07986       -0.03652 )
      E*y (       -0.07986        0.31448       -0.03652 )
      E*z (       -0.10197       -0.10197        0.68982 )
           atom   16  H     Mean Z*:        0.43959
      E*x (        0.31448        0.07986        0.03652 )
      E*y (        0.07986        0.31448       -0.03652 )
      E*z (        0.10197       -0.10197        0.68982 )


     Representation #   1 mode #   1

     Self-consistent Calculation

      iter #   1 total cpu time :   568.2 secs   av.it.:   4.0
      thresh= 1.000E-02 alpha_mix =  0.700 |ddv_scf|^2 =  4.453E-09

      iter #   2 total cpu time :   580.4 secs   av.it.:  14.0
      thresh= 6.673E-06 alpha_mix =  0.700 |ddv_scf|^2 =  1.680E-09

      iter #   3 total cpu time :   592.6 secs   av.it.:  14.0
      thresh= 4.099E-06 alpha_mix =  0.700 |ddv_scf|^2 =  1.701E-10

      iter #   4 total cpu time :   604.8 secs   av.it.:  14.0
      thresh= 1.304E-06 alpha_mix =  0.700 |ddv_scf|^2 =  2.136E-11

      iter #   5 total cpu time :   617.0 secs   av.it.:  13.8
      thresh= 4.622E-07 alpha_mix =  0.700 |ddv_scf|^2 =  6.723E-13

      iter #   6 total cpu time :   629.5 secs   av.it.:  14.5
      thresh= 8.199E-08 alpha_mix =  0.700 |ddv_scf|^2 =  6.793E-14

      iter #   7 total cpu time :   642.1 secs   av.it.:  14.6
      thresh= 2.606E-08 alpha_mix =  0.700 |ddv_scf|^2 =  4.683E-15

     End of self-consistent calculation

     Convergence has been achieved 


     Representation #   2 mode #   2

     Self-consistent Calculation

      iter #   1 total cpu time :   649.6 secs   av.it.:   6.1
      thresh= 1.000E-02 alpha_mix =  0.700 |ddv_scf|^2 =  1.037E-07

      iter #   2 total cpu time :   662.3 secs   av.it.:  14.6
      thresh= 3.220E-05 alpha_mix =  0.700 |ddv_scf|^2 =  1.465E-07

      iter #   3 total cpu time :   674.4 secs   av.it.:  13.7
      thresh= 3.828E-05 alpha_mix =  0.700 |ddv_scf|^2 =  4.357E-09

      iter #   4 total cpu time :   686.5 secs   av.it.:  13.7
      thresh= 6.601E-06 alpha_mix =  0.700 |ddv_scf|^2 =  5.920E-11

      iter #   5 total cpu time :   699.1 secs   av.it.:  14.5
      thresh= 7.694E-07 alpha_mix =  0.700 |ddv_scf|^2 =  2.263E-11

      iter #   6 total cpu time :   711.4 secs   av.it.:  14.0
      thresh= 4.757E-07 alpha_mix =  0.700 |ddv_scf|^2 =  3.711E-13

      iter #   7 total cpu time :   723.1 secs   av.it.:  13.3
      thresh= 6.092E-08 alpha_mix =  0.700 |ddv_scf|^2 =  3.759E-14

      iter #   8 total cpu time :   735.3 secs   av.it.:  13.9
      thresh= 1.939E-08 alpha_mix =  0.700 |ddv_scf|^2 =  2.465E-15

     End of self-consistent calculation

     Convergence has been achieved 


     Representation #   3 mode #   3

     Self-consistent Calculation

      iter #   1 total cpu time :   743.1 secs   av.it.:   7.0
      thresh= 1.000E-02 alpha_mix =  0.700 |ddv_scf|^2 =  3.258E-07

      iter #   2 total cpu time :   755.4 secs   av.it.:  14.1
      thresh= 5.708E-05 alpha_mix =  0.700 |ddv_scf|^2 =  1.629E-07

      iter #   3 total cpu time :   767.4 secs   av.it.:  13.8
      thresh= 4.036E-05 alpha_mix =  0.700 |ddv_scf|^2 =  7.224E-09

      iter #   4 total cpu time :   779.7 secs   av.it.:  14.0
      thresh= 8.499E-06 alpha_mix =  0.700 |ddv_scf|^2 =  8.900E-10

      iter #   5 total cpu time :   791.7 secs   av.it.:  13.8
      thresh= 2.983E-06 alpha_mix =  0.700 |ddv_scf|^2 =  1.318E-11

      iter #   6 total cpu time :   804.4 secs   av.it.:  14.7
      thresh= 3.630E-07 alpha_mix =  0.700 |ddv_scf|^2 =  2.738E-12

      iter #   7 total cpu time :   816.8 secs   av.it.:  14.2
      thresh= 1.655E-07 alpha_mix =  0.700 |ddv_scf|^2 =  4.571E-14

      iter #   8 total cpu time :   828.6 secs   av.it.:  13.7
      thresh= 2.138E-08 alpha_mix =  0.700 |ddv_scf|^2 =  3.157E-15

     End of self-consistent calculation

     Convergence has been achieved 


     Representation #   4 mode #   4

     Self-consistent Calculation

      iter #   1 total cpu time :   835.0 secs   av.it.:   5.0
      thresh= 1.000E-02 alpha_mix =  0.700 |ddv_scf|^2 =  8.049E-09

      iter #   2 total cpu time :   847.7 secs   av.it.:  14.8
      thresh= 8.972E-06 alpha_mix =  0.700 |ddv_scf|^2 =  1.197E-08

      iter #   3 total cpu time :   859.9 secs   av.it.:  14.0
      thresh= 1.094E-05 alpha_mix =  0.700 |ddv_scf|^2 =  3.227E-10

      iter #   4 total cpu time :   872.1 secs   av.it.:  13.9
      thresh= 1.796E-06 alpha_mix =  0.700 |ddv_scf|^2 =  1.495E-11

      iter #   5 total cpu time :   884.4 secs   av.it.:  14.4
      thresh= 3.867E-07 alpha_mix =  0.700 |ddv_scf|^2 =  3.607E-12

      iter #   6 total cpu time :   896.5 secs   av.it.:  13.9
      thresh= 1.899E-07 alpha_mix =  0.700 |ddv_scf|^2 =  7.699E-14

      iter #   7 total cpu time :   908.4 secs   av.it.:  13.7
      thresh= 2.775E-08 alpha_mix =  0.700 |ddv_scf|^2 =  1.375E-14

      iter #   8 total cpu time :   920.4 secs   av.it.:  13.8
      thresh= 1.173E-08 alpha_mix =  0.700 |ddv_scf|^2 =  1.401E-16

     End of self-consistent calculation

     Convergence has been achieved 


     Representation #   5 mode #   5

     Self-consistent Calculation

      iter #   1 total cpu time :   928.3 secs   av.it.:   7.0
      thresh= 1.000E-02 alpha_mix =  0.700 |ddv_scf|^2 =  3.505E-07

      iter #   2 total cpu time :   940.5 secs   av.it.:  14.2
      thresh= 5.920E-05 alpha_mix =  0.700 |ddv_scf|^2 =  1.733E-07

      iter #   3 total cpu time :   952.5 secs   av.it.:  13.8
      thresh= 4.163E-05 alpha_mix =  0.700 |ddv_scf|^2 =  6.805E-09

      iter #   4 total cpu time :   964.8 secs   av.it.:  14.2
      thresh= 8.249E-06 alpha_mix =  0.700 |ddv_scf|^2 =  1.492E-09

      iter #   5 total cpu time :   977.0 secs   av.it.:  13.8
      thresh= 3.863E-06 alpha_mix =  0.700 |ddv_scf|^2 =  6.858E-11

      iter #   6 total cpu time :   989.0 secs   av.it.:  13.8
      thresh= 8.281E-07 alpha_mix =  0.700 |ddv_scf|^2 =  2.902E-12

      iter #   7 total cpu time :  1001.5 secs   av.it.:  14.2
      thresh= 1.703E-07 alpha_mix =  0.700 |ddv_scf|^2 =  1.041E-13

      iter #   8 total cpu time :  1013.3 secs   av.it.:  13.7
      thresh= 3.227E-08 alpha_mix =  0.700 |ddv_scf|^2 =  3.583E-15

     End of self-consistent calculation

     Convergence has been achieved 


     Representation #   6 mode #   6

     Self-consistent Calculation

      iter #   1 total cpu time :  1019.2 secs   av.it.:   4.0
      thresh= 1.000E-02 alpha_mix =  0.700 |ddv_scf|^2 =  3.075E-09

      iter #   2 total cpu time :  1031.6 secs   av.it.:  14.4
      thresh= 5.546E-06 alpha_mix =  0.700 |ddv_scf|^2 =  1.394E-09

      iter #   3 total cpu time :  1043.9 secs   av.it.:  14.1
      thresh= 3.734E-06 alpha_mix =  0.700 |ddv_scf|^2 =  2.566E-10

      iter #   4 total cpu time :  1056.0 secs   av.it.:  13.8
      thresh= 1.602E-06 alpha_mix =  0.700 |ddv_scf|^2 =  1.577E-11

      iter #   5 total cpu time :  1068.2 secs   av.it.:  14.0
      thresh= 3.972E-07 alpha_mix =  0.700 |ddv_scf|^2 =  8.096E-13

      iter #   6 total cpu time :  1080.6 secs   av.it.:  14.5
      thresh= 8.998E-08 alpha_mix =  0.700 |ddv_scf|^2 =  1.342E-13

      iter #   7 total cpu time :  1092.6 secs   av.it.:  13.8
      thresh= 3.663E-08 alpha_mix =  0.700 |ddv_scf|^2 =  1.424E-14

      iter #   8 total cpu time :  1104.6 secs   av.it.:  13.8
      thresh= 1.193E-08 alpha_mix =  0.700 |ddv_scf|^2 =  1.046E-16

     End of self-consistent calculation

     Convergence has been achieved 


     Representation #   7 mode #   7

     Self-consistent Calculation

      iter #   1 total cpu time :  1111.0 secs   av.it.:   5.0
      thresh= 1.000E-02 alpha_mix =  0.700 |ddv_scf|^2 =  7.137E-09

      iter #   2 total cpu time :  1123.7 secs   av.it.:  14.8
      thresh= 8.448E-06 alpha_mix =  0.700 |ddv_scf|^2 =  1.080E-08

      iter #   3 total cpu time :  1135.7 secs   av.it.:  13.9
      thresh= 1.039E-05 alpha_mix =  0.700 |ddv_scf|^2 =  2.324E-10

      iter #   4 total cpu time :  1148.0 secs   av.it.:  14.0
      thresh= 1.524E-06 alpha_mix =  0.700 |ddv_scf|^2 =  1.353E-11

      iter #   5 total cpu time :  1160.4 secs   av.it.:  14.5
      thresh= 3.678E-07 alpha_mix =  0.700 |ddv_scf|^2 =  2.309E-12

      iter #   6 total cpu time :  1172.3 secs   av.it.:  13.7
      thresh= 1.520E-07 alpha_mix =  0.700 |ddv_scf|^2 =  4.732E-14

      iter #   7 total cpu time :  1184.0 secs   av.it.:  13.7
      thresh= 2.175E-08 alpha_mix =  0.700 |ddv_scf|^2 =  1.063E-15

     End of self-consistent calculation

     Convergence has been achieved 


     Representation #   8 mode #   8

     Self-consistent Calculation

      iter #   1 total cpu time :  1191.7 secs   av.it.:   6.9
      thresh= 1.000E-02 alpha_mix =  0.700 |ddv_scf|^2 =  2.005E-07

      iter #   2 total cpu time :  1203.9 secs   av.it.:  14.2
      thresh= 4.477E-05 alpha_mix =  0.700 |ddv_scf|^2 =  6.992E-08

      iter #   3 total cpu time :  1215.7 secs   av.it.:  13.8
      thresh= 2.644E-05 alpha_mix =  0.700 |ddv_scf|^2 =  3.907E-09

      iter #   4 total cpu time :  1227.9 secs   av.it.:  14.1
      thresh= 6.251E-06 alpha_mix =  0.700 |ddv_scf|^2 =  4.544E-10

      iter #   5 total cpu time :  1239.9 secs   av.it.:  13.7
      thresh= 2.132E-06 alpha_mix =  0.700 |ddv_scf|^2 =  1.538E-11

      iter #   6 total cpu time :  1252.0 secs   av.it.:  14.0
      thresh= 3.921E-07 alpha_mix =  0.700 |ddv_scf|^2 =  1.859E-12

      iter #   7 total cpu time :  1264.3 secs   av.it.:  14.3
      thresh= 1.364E-07 alpha_mix =  0.700 |ddv_scf|^2 =  7.994E-14

      iter #   8 total cpu time :  1276.2 secs   av.it.:  13.7
      thresh= 2.827E-08 alpha_mix =  0.700 |ddv_scf|^2 =  4.748E-16

     End of self-consistent calculation

     Convergence has been achieved 


     Representation #   9 mode #   9

     Self-consistent Calculation

      iter #   1 total cpu time :  1283.7 secs   av.it.:   6.3
      thresh= 1.000E-02 alpha_mix =  0.700 |ddv_scf|^2 =  2.366E-07

      iter #   2 total cpu time :  1295.3 secs   av.it.:  13.2
      thresh= 4.865E-05 alpha_mix =  0.700 |ddv_scf|^2 =  1.384E-08

      iter #   3 total cpu time :  1306.8 secs   av.it.:  12.8
      thresh= 1.177E-05 alpha_mix =  0.700 |ddv_scf|^2 =  2.830E-11

      iter #   4 total cpu time :  1317.9 secs   av.it.:  12.8
      thresh= 5.320E-07 alpha_mix =  0.700 |ddv_scf|^2 =  1.209E-13

      iter #   5 total cpu time :  1328.9 secs   av.it.:  12.5
      thresh= 3.477E-08 alpha_mix =  0.700 |ddv_scf|^2 =  3.300E-15

     End of self-consistent calculation

     Convergence has been achieved 


     Representation #  10 mode #  10

     Self-consistent Calculation

      iter #   1 total cpu time :  1334.6 secs   av.it.:   4.0
      thresh= 1.000E-02 alpha_mix =  0.700 |ddv_scf|^2 =  4.073E-09

      iter #   2 total cpu time :  1346.0 secs   av.it.:  13.0
      thresh= 6.382E-06 alpha_mix =  0.700 |ddv_scf|^2 =  1.091E-10

      iter #   3 total cpu time :  1357.6 secs   av.it.:  13.2
      thresh= 1.044E-06 alpha_mix =  0.700 |ddv_scf|^2 =  3.317E-12

      iter #   4 total cpu time :  1369.0 secs   av.it.:  13.0
      thresh= 1.821E-07 alpha_mix =  0.700 |ddv_scf|^2 =  1.019E-13

      iter #   5 total cpu time :  1380.2 secs   av.it.:  12.8
      thresh= 3.192E-08 alpha_mix =  0.700 |ddv_scf|^2 =  6.590E-16

     End of self-consistent calculation

     Convergence has been achieved 


     Representation #  11 mode #  11

     Self-consistent Calculation

      iter #   1 total cpu time :  1386.0 secs   av.it.:   4.0
      thresh= 1.000E-02 alpha_mix =  0.700 |ddv_scf|^2 =  3.440E-09

      iter #   2 total cpu time :  1397.5 secs   av.it.:  13.1
      thresh= 5.866E-06 alpha_mix =  0.700 |ddv_scf|^2 =  1.191E-10

      iter #   3 total cpu time :  1409.0 secs   av.it.:  13.1
      thresh= 1.091E-06 alpha_mix =  0.700 |ddv_scf|^2 =  3.214E-12

      iter #   4 total cpu time :  1420.3 secs   av.it.:  12.8
      thresh= 1.793E-07 alpha_mix =  0.700 |ddv_scf|^2 =  6.959E-14

      iter #   5 total cpu time :  1431.6 secs   av.it.:  12.9
      thresh= 2.638E-08 alpha_mix =  0.700 |ddv_scf|^2 =  6.844E-16

     End of self-consistent calculation

     Convergence has been achieved 


     Representation #  12 mode #  12

     Self-consistent Calculation

      iter #   1 total cpu time :  1438.8 secs   av.it.:   6.0
      thresh= 1.000E-02 alpha_mix =  0.700 |ddv_scf|^2 =  6.075E-08

      iter #   2 total cpu time :  1450.9 secs   av.it.:  13.9
      thresh= 2.465E-05 alpha_mix =  0.700 |ddv_scf|^2 =  7.570E-10

      iter #   3 total cpu time :  1463.0 secs   av.it.:  13.8
      thresh= 2.751E-06 alpha_mix =  0.700 |ddv_scf|^2 =  6.750E-12

      iter #   4 total cpu time :  1474.8 secs   av.it.:  13.6
      thresh= 2.598E-07 alpha_mix =  0.700 |ddv_scf|^2 =  6.067E-14

      iter #   5 total cpu time :  1486.0 secs   av.it.:  12.8
      thresh= 2.463E-08 alpha_mix =  0.700 |ddv_scf|^2 =  4.800E-16

     End of self-consistent calculation

     Convergence has been achieved 


     Representation #  13 mode #  13

     Self-consistent Calculation

      iter #   1 total cpu time :  1491.7 secs   av.it.:   4.0
      thresh= 1.000E-02 alpha_mix =  0.700 |ddv_scf|^2 =  6.310E-10

      iter #   2 total cpu time :  1503.5 secs   av.it.:  13.6
      thresh= 2.512E-06 alpha_mix =  0.700 |ddv_scf|^2 =  1.544E-11

      iter #   3 total cpu time :  1515.3 secs   av.it.:  13.6
      thresh= 3.930E-07 alpha_mix =  0.700 |ddv_scf|^2 =  1.220E-12

      iter #   4 total cpu time :  1526.7 secs   av.it.:  13.0
      thresh= 1.105E-07 alpha_mix =  0.700 |ddv_scf|^2 =  2.189E-14

      iter #   5 total cpu time :  1537.9 secs   av.it.:  12.8
      thresh= 1.480E-08 alpha_mix =  0.700 |ddv_scf|^2 =  1.675E-16

     End of self-consistent calculation

     Convergence has been achieved 


     Representation #  14 mode #  14

     Self-consistent Calculation

      iter #   1 total cpu time :  1543.6 secs   av.it.:   4.0
      thresh= 1.000E-02 alpha_mix =  0.700 |ddv_scf|^2 =  3.784E-10

      iter #   2 total cpu time :  1555.7 secs   av.it.:  13.8
      thresh= 1.945E-06 alpha_mix =  0.700 |ddv_scf|^2 =  1.560E-11

      iter #   3 total cpu time :  1567.5 secs   av.it.:  13.5
      thresh= 3.949E-07 alpha_mix =  0.700 |ddv_scf|^2 =  9.277E-13

      iter #   4 total cpu time :  1578.8 secs   av.it.:  12.9
      thresh= 9.632E-08 alpha_mix =  0.700 |ddv_scf|^2 =  1.552E-14

      iter #   5 total cpu time :  1590.2 secs   av.it.:  13.0
      thresh= 1.246E-08 alpha_mix =  0.700 |ddv_scf|^2 =  1.393E-16

     End of self-consistent calculation

     Convergence has been achieved 


     Representation #  15 mode #  15

     Self-consistent Calculation

      iter #   1 total cpu time :  1596.2 secs   av.it.:   4.5
      thresh= 1.000E-02 alpha_mix =  0.700 |ddv_scf|^2 =  5.751E-09

      iter #   2 total cpu time :  1608.7 secs   av.it.:  14.6
      thresh= 7.584E-06 alpha_mix =  0.700 |ddv_scf|^2 =  3.880E-09

      iter #   3 total cpu time :  1620.6 secs   av.it.:  13.9
      thresh= 6.229E-06 alpha_mix =  0.700 |ddv_scf|^2 =  1.666E-10

      iter #   4 total cpu time :  1632.6 secs   av.it.:  13.8
      thresh= 1.291E-06 alpha_mix =  0.700 |ddv_scf|^2 =  3.052E-11

      iter #   5 total cpu time :  1644.6 secs   av.it.:  13.8
      thresh= 5.525E-07 alpha_mix =  0.700 |ddv_scf|^2 =  9.586E-13

      iter #   6 total cpu time :  1656.6 secs   av.it.:  14.0
      thresh= 9.791E-08 alpha_mix =  0.700 |ddv_scf|^2 =  1.127E-13

      iter #   7 total cpu time :  1667.9 secs   av.it.:  13.2
      thresh= 3.357E-08 alpha_mix =  0.700 |ddv_scf|^2 =  7.557E-15

     End of self-consistent calculation

     Convergence has been achieved 


     Representation #  16 mode #  16

     Self-consistent Calculation

      iter #   1 total cpu time :  1675.6 secs   av.it.:   6.9
      thresh= 1.000E-02 alpha_mix =  0.700 |ddv_scf|^2 =  1.745E-07

      iter #   2 total cpu time :  1687.6 secs   av.it.:  14.0
      thresh= 4.177E-05 alpha_mix =  0.700 |ddv_scf|^2 =  6.457E-08

      iter #   3 total cpu time :  1699.4 secs   av.it.:  13.8
      thresh= 2.541E-05 alpha_mix =  0.700 |ddv_scf|^2 =  3.399E-09

      iter #   4 total cpu time :  1711.2 secs   av.it.:  13.7
      thresh= 5.831E-06 alpha_mix =  0.700 |ddv_scf|^2 =  1.647E-10

      iter #   5 total cpu time :  1723.2 secs   av.it.:  14.0
      thresh= 1.283E-06 alpha_mix =  0.700 |ddv_scf|^2 =  3.054E-11

      iter #   6 total cpu time :  1735.2 secs   av.it.:  13.8
      thresh= 5.526E-07 alpha_mix =  0.700 |ddv_scf|^2 =  1.336E-12

      iter #   7 total cpu time :  1747.5 secs   av.it.:  14.3
      thresh= 1.156E-07 alpha_mix =  0.700 |ddv_scf|^2 =  1.402E-13

      iter #   8 total cpu time :  1759.4 secs   av.it.:  13.9
      thresh= 3.744E-08 alpha_mix =  0.700 |ddv_scf|^2 =  5.752E-16

     End of self-consistent calculation

     Convergence has been achieved 


     Representation #  17 mode #  17

     Self-consistent Calculation

      iter #   1 total cpu time :  1766.8 secs   av.it.:   6.0
      thresh= 1.000E-02 alpha_mix =  0.700 |ddv_scf|^2 =  7.549E-08

      iter #   2 total cpu time :  1779.4 secs   av.it.:  14.7
      thresh= 2.748E-05 alpha_mix =  0.700 |ddv_scf|^2 =  1.034E-07

      iter #   3 total cpu time :  1791.3 secs   av.it.:  13.8
      thresh= 3.215E-05 alpha_mix =  0.700 |ddv_scf|^2 =  4.914E-09

      iter #   4 total cpu time :  1802.8 secs   av.it.:  13.1
      thresh= 7.010E-06 alpha_mix =  0.700 |ddv_scf|^2 =  2.303E-10

      iter #   5 total cpu time :  1814.6 secs   av.it.:  13.7
      thresh= 1.518E-06 alpha_mix =  0.700 |ddv_scf|^2 =  1.657E-11

      iter #   6 total cpu time :  1826.9 secs   av.it.:  14.5
      thresh= 4.071E-07 alpha_mix =  0.700 |ddv_scf|^2 =  2.991E-12

      iter #   7 total cpu time :  1838.9 secs   av.it.:  13.8
      thresh= 1.729E-07 alpha_mix =  0.700 |ddv_scf|^2 =  1.142E-13

      iter #   8 total cpu time :  1850.7 secs   av.it.:  13.8
      thresh= 3.379E-08 alpha_mix =  0.700 |ddv_scf|^2 =  1.409E-15

     End of self-consistent calculation

     Convergence has been achieved 


     Representation #  18 mode #  18

     Self-consistent Calculation

      iter #   1 total cpu time :  1856.8 secs   av.it.:   4.5
      thresh= 1.000E-02 alpha_mix =  0.700 |ddv_scf|^2 =  9.144E-09

      iter #   2 total cpu time :  1869.0 secs   av.it.:  14.3
      thresh= 9.562E-06 alpha_mix =  0.700 |ddv_scf|^2 =  7.670E-09

      iter #   3 total cpu time :  1881.0 secs   av.it.:  13.8
      thresh= 8.758E-06 alpha_mix =  0.700 |ddv_scf|^2 =  5.808E-10

      iter #   4 total cpu time :  1892.8 secs   av.it.:  13.6
      thresh= 2.410E-06 alpha_mix =  0.700 |ddv_scf|^2 =  1.555E-11

      iter #   5 total cpu time :  1905.0 secs   av.it.:  14.5
      thresh= 3.944E-07 alpha_mix =  0.700 |ddv_scf|^2 =  1.452E-12

      iter #   6 total cpu time :  1917.0 secs   av.it.:  14.0
      thresh= 1.205E-07 alpha_mix =  0.700 |ddv_scf|^2 =  2.070E-14

      iter #   7 total cpu time :  1928.6 secs   av.it.:  13.6
      thresh= 1.439E-08 alpha_mix =  0.700 |ddv_scf|^2 =  4.835E-16

     End of self-consistent calculation

     Convergence has been achieved 


     Representation #  19 mode #  19

     Self-consistent Calculation

      iter #   1 total cpu time :  1934.4 secs   av.it.:   4.0
      thresh= 1.000E-02 alpha_mix =  0.700 |ddv_scf|^2 =  6.391E-09

      iter #   2 total cpu time :  1946.4 secs   av.it.:  14.0
      thresh= 7.994E-06 alpha_mix =  0.700 |ddv_scf|^2 =  2.504E-09

      iter #   3 total cpu time :  1958.3 secs   av.it.:  13.7
      thresh= 5.004E-06 alpha_mix =  0.700 |ddv_scf|^2 =  5.629E-11

      iter #   4 total cpu time :  1970.2 secs   av.it.:  13.8
      thresh= 7.503E-07 alpha_mix =  0.700 |ddv_scf|^2 =  2.858E-12

      iter #   5 total cpu time :  1982.5 secs   av.it.:  14.3
      thresh= 1.690E-07 alpha_mix =  0.700 |ddv_scf|^2 =  7.363E-13

      iter #   6 total cpu time :  1994.4 secs   av.it.:  13.8
      thresh= 8.581E-08 alpha_mix =  0.700 |ddv_scf|^2 =  1.295E-13

      iter #   7 total cpu time :  2006.3 secs   av.it.:  13.8
      thresh= 3.598E-08 alpha_mix =  0.700 |ddv_scf|^2 =  5.121E-15

     End of self-consistent calculation

     Convergence has been achieved 


     Representation #  20 mode #  20

     Self-consistent Calculation

      iter #   1 total cpu time :  2014.1 secs   av.it.:   7.0
      thresh= 1.000E-02 alpha_mix =  0.700 |ddv_scf|^2 =  4.002E-07

      iter #   2 total cpu time :  2026.3 secs   av.it.:  14.2
      thresh= 6.326E-05 alpha_mix =  0.700 |ddv_scf|^2 =  2.217E-07

      iter #   3 total cpu time :  2038.0 secs   av.it.:  13.7
      thresh= 4.708E-05 alpha_mix =  0.700 |ddv_scf|^2 =  1.099E-08

      iter #   4 total cpu time :  2050.1 secs   av.it.:  14.0
      thresh= 1.048E-05 alpha_mix =  0.700 |ddv_scf|^2 =  2.374E-09

      iter #   5 total cpu time :  2061.9 secs   av.it.:  13.5
      thresh= 4.872E-06 alpha_mix =  0.700 |ddv_scf|^2 =  1.630E-11

      iter #   6 total cpu time :  2074.2 secs   av.it.:  14.3
      thresh= 4.038E-07 alpha_mix =  0.700 |ddv_scf|^2 =  3.087E-12

      iter #   7 total cpu time :  2086.4 secs   av.it.:  14.4
      thresh= 1.757E-07 alpha_mix =  0.700 |ddv_scf|^2 =  2.734E-13

      iter #   8 total cpu time :  2098.4 secs   av.it.:  13.9
      thresh= 5.229E-08 alpha_mix =  0.700 |ddv_scf|^2 =  2.575E-15

     End of self-consistent calculation

     Convergence has been achieved 


     Representation #  21 mode #  21

     Self-consistent Calculation

      iter #   1 total cpu time :  2106.3 secs   av.it.:   7.0
      thresh= 1.000E-02 alpha_mix =  0.700 |ddv_scf|^2 =  5.722E-07

      iter #   2 total cpu time :  2118.1 secs   av.it.:  13.8
      thresh= 7.564E-05 alpha_mix =  0.700 |ddv_scf|^2 =  3.212E-07

      iter #   3 total cpu time :  2129.7 secs   av.it.:  13.4
      thresh= 5.668E-05 alpha_mix =  0.700 |ddv_scf|^2 =  3.570E-09

      iter #   4 total cpu time :  2141.9 secs   av.it.:  14.2
      thresh= 5.975E-06 alpha_mix =  0.700 |ddv_scf|^2 =  9.010E-10

      iter #   5 total cpu time :  2153.7 secs   av.it.:  13.7
      thresh= 3.002E-06 alpha_mix =  0.700 |ddv_scf|^2 =  1.703E-11

      iter #   6 total cpu time :  2165.8 secs   av.it.:  14.2
      thresh= 4.126E-07 alpha_mix =  0.700 |ddv_scf|^2 =  2.507E-12

      iter #   7 total cpu time :  2178.1 secs   av.it.:  14.3
      thresh= 1.583E-07 alpha_mix =  0.700 |ddv_scf|^2 =  1.258E-13

      iter #   8 total cpu time :  2190.2 secs   av.it.:  14.2
      thresh= 3.547E-08 alpha_mix =  0.700 |ddv_scf|^2 =  1.460E-15

     End of self-consistent calculation

     Convergence has been achieved 


     Representation #  22 mode #  22

     Self-consistent Calculation

      iter #   1 total cpu time :  2196.5 secs   av.it.:   5.0
      thresh= 1.000E-02 alpha_mix =  0.700 |ddv_scf|^2 =  1.276E-08

      iter #   2 total cpu time :  2208.7 secs   av.it.:  14.2
      thresh= 1.130E-05 alpha_mix =  0.700 |ddv_scf|^2 =  9.033E-09

      iter #   3 total cpu time :  2220.6 secs   av.it.:  13.8
      thresh= 9.504E-06 alpha_mix =  0.700 |ddv_scf|^2 =  7.233E-10

      iter #   4 total cpu time :  2232.2 secs   av.it.:  13.2
      thresh= 2.690E-06 alpha_mix =  0.700 |ddv_scf|^2 =  1.622E-11

      iter #   5 total cpu time :  2244.2 secs   av.it.:  14.0
      thresh= 4.028E-07 alpha_mix =  0.700 |ddv_scf|^2 =  1.734E-12

      iter #   6 total cpu time :  2256.5 secs   av.it.:  14.4
      thresh= 1.317E-07 alpha_mix =  0.700 |ddv_scf|^2 =  1.756E-13

      iter #   7 total cpu time :  2268.5 secs   av.it.:  14.1
      thresh= 4.190E-08 alpha_mix =  0.700 |ddv_scf|^2 =  1.608E-14

      iter #   8 total cpu time :  2280.5 secs   av.it.:  14.0
      thresh= 1.268E-08 alpha_mix =  0.700 |ddv_scf|^2 =  8.285E-16

     End of self-consistent calculation

     Convergence has been achieved 


     Representation #  23 modes #  23  24

     Self-consistent Calculation

      iter #   1 total cpu time :  2292.0 secs   av.it.:   4.6
      thresh= 1.000E-02 alpha_mix =  0.700 |ddv_scf|^2 =  2.186E-09

      iter #   2 total cpu time :  2318.3 secs   av.it.:  15.8
      thresh= 4.675E-06 alpha_mix =  0.700 |ddv_scf|^2 =  3.697E-09

      iter #   3 total cpu time :  2343.0 secs   av.it.:  14.6
      thresh= 6.080E-06 alpha_mix =  0.700 |ddv_scf|^2 =  2.620E-12

      iter #   4 total cpu time :  2368.5 secs   av.it.:  15.3
      thresh= 1.619E-07 alpha_mix =  0.700 |ddv_scf|^2 =  5.272E-13

      iter #   5 total cpu time :  2393.9 secs   av.it.:  15.1
      thresh= 7.261E-08 alpha_mix =  0.700 |ddv_scf|^2 =  1.862E-14

      iter #   6 total cpu time :  2419.0 secs   av.it.:  14.8
      thresh= 1.365E-08 alpha_mix =  0.700 |ddv_scf|^2 =  3.721E-16

     End of self-consistent calculation

     Convergence has been achieved 


     Representation #  24 modes #  25  26

     Self-consistent Calculation

      iter #   1 total cpu time :  2433.5 secs   av.it.:   6.2
      thresh= 1.000E-02 alpha_mix =  0.700 |ddv_scf|^2 =  2.309E-08

      iter #   2 total cpu time :  2459.4 secs   av.it.:  15.3
      thresh= 1.520E-05 alpha_mix =  0.700 |ddv_scf|^2 =  7.771E-10

      iter #   3 total cpu time :  2485.7 secs   av.it.:  15.7
      thresh= 2.788E-06 alpha_mix =  0.700 |ddv_scf|^2 =  1.778E-10

      iter #   4 total cpu time :  2511.1 secs   av.it.:  14.8
      thresh= 1.333E-06 alpha_mix =  0.700 |ddv_scf|^2 =  4.263E-12

      iter #   5 total cpu time :  2536.0 secs   av.it.:  14.7
      thresh= 2.065E-07 alpha_mix =  0.700 |ddv_scf|^2 =  1.665E-13

      iter #   6 total cpu time :  2562.2 secs   av.it.:  15.6
      thresh= 4.080E-08 alpha_mix =  0.700 |ddv_scf|^2 =  1.310E-14

      iter #   7 total cpu time :  2587.8 secs   av.it.:  15.0
      thresh= 1.145E-08 alpha_mix =  0.700 |ddv_scf|^2 =  1.116E-16

     End of self-consistent calculation

     Convergence has been achieved 


     Representation #  25 modes #  27  28

     Self-consistent Calculation

      iter #   1 total cpu time :  2599.7 secs   av.it.:   4.0
      thresh= 1.000E-02 alpha_mix =  0.700 |ddv_scf|^2 =  1.138E-09

      iter #   2 total cpu time :  2625.4 secs   av.it.:  14.8
      thresh= 3.373E-06 alpha_mix =  0.700 |ddv_scf|^2 =  4.662E-10

      iter #   3 total cpu time :  2650.8 secs   av.it.:  14.8
      thresh= 2.159E-06 alpha_mix =  0.700 |ddv_scf|^2 =  5.058E-11

      iter #   4 total cpu time :  2682.4 secs   av.it.:  14.7
      thresh= 7.112E-07 alpha_mix =  0.700 |ddv_scf|^2 =  1.031E-12

      iter #   5 total cpu time :  2714.0 secs   av.it.:  14.9
      thresh= 1.015E-07 alpha_mix =  0.700 |ddv_scf|^2 =  1.185E-14

      iter #   6 total cpu time :  2741.2 secs   av.it.:  14.4
      thresh= 1.088E-08 alpha_mix =  0.700 |ddv_scf|^2 =  3.264E-16

     End of self-consistent calculation

     Convergence has been achieved 


     Representation #  26 modes #  29  30

     Self-consistent Calculation

      iter #   1 total cpu time :  2756.4 secs   av.it.:   6.0
      thresh= 1.000E-02 alpha_mix =  0.700 |ddv_scf|^2 =  2.276E-08

      iter #   2 total cpu time :  2783.1 secs   av.it.:  15.6
      thresh= 1.509E-05 alpha_mix =  0.700 |ddv_scf|^2 =  1.119E-08

      iter #   3 total cpu time :  2810.8 secs   av.it.:  14.8
      thresh= 1.058E-05 alpha_mix =  0.700 |ddv_scf|^2 =  9.148E-10

      iter #   4 total cpu time :  2836.4 secs   av.it.:  14.9
      thresh= 3.024E-06 alpha_mix =  0.700 |ddv_scf|^2 =  2.082E-11

      iter #   5 total cpu time :  2862.7 secs   av.it.:  14.9
      thresh= 4.563E-07 alpha_mix =  0.700 |ddv_scf|^2 =  3.797E-13

      iter #   6 total cpu time :  2888.4 secs   av.it.:  15.2
      thresh= 6.162E-08 alpha_mix =  0.700 |ddv_scf|^2 =  5.106E-15

     End of self-consistent calculation

     Convergence has been achieved 


     Representation #  27 modes #  31  32

     Self-consistent Calculation

      iter #   1 total cpu time :  2900.3 secs   av.it.:   4.5
      thresh= 1.000E-02 alpha_mix =  0.700 |ddv_scf|^2 =  6.570E-10

      iter #   2 total cpu time :  2927.2 secs   av.it.:  15.9
      thresh= 2.563E-06 alpha_mix =  0.700 |ddv_scf|^2 =  9.922E-10

      iter #   3 total cpu time :  2952.3 secs   av.it.:  14.8
      thresh= 3.150E-06 alpha_mix =  0.700 |ddv_scf|^2 =  3.240E-12

      iter #   4 total cpu time :  2977.5 secs   av.it.:  14.8
      thresh= 1.800E-07 alpha_mix =  0.700 |ddv_scf|^2 =  1.770E-13

      iter #   5 total cpu time :  3002.5 secs   av.it.:  14.8
      thresh= 4.207E-08 alpha_mix =  0.700 |ddv_scf|^2 =  4.125E-15

     End of self-consistent calculation

     Convergence has been achieved 


     Representation #  28 modes #  33  34

     Self-consistent Calculation

      iter #   1 total cpu time :  3017.7 secs   av.it.:   7.0
      thresh= 1.000E-02 alpha_mix =  0.700 |ddv_scf|^2 =  9.046E-08

      iter #   2 total cpu time :  3043.5 secs   av.it.:  15.1
      thresh= 3.008E-05 alpha_mix =  0.700 |ddv_scf|^2 =  2.027E-08

      iter #   3 total cpu time :  3069.1 secs   av.it.:  14.8
      thresh= 1.424E-05 alpha_mix =  0.700 |ddv_scf|^2 =  2.861E-09

      iter #   4 total cpu time :  3094.7 secs   av.it.:  14.9
      thresh= 5.348E-06 alpha_mix =  0.700 |ddv_scf|^2 =  9.701E-11

      iter #   5 total cpu time :  3119.9 secs   av.it.:  14.8
      thresh= 9.849E-07 alpha_mix =  0.700 |ddv_scf|^2 =  1.112E-12

      iter #   6 total cpu time :  3145.0 secs   av.it.:  14.8
      thresh= 1.055E-07 alpha_mix =  0.700 |ddv_scf|^2 =  4.680E-14

      iter #   7 total cpu time :  3169.7 secs   av.it.:  14.6
      thresh= 2.163E-08 alpha_mix =  0.700 |ddv_scf|^2 =  1.636E-15

     End of self-consistent calculation

     Convergence has been achieved 


     Representation #  29 modes #  35  36

     Self-consistent Calculation

      iter #   1 total cpu time :  3180.8 secs   av.it.:   4.0
      thresh= 1.000E-02 alpha_mix =  0.700 |ddv_scf|^2 =  4.327E-10

      iter #   2 total cpu time :  3207.2 secs   av.it.:  15.8
      thresh= 2.080E-06 alpha_mix =  0.700 |ddv_scf|^2 =  1.479E-10

      iter #   3 total cpu time :  3233.4 secs   av.it.:  15.6
      thresh= 1.216E-06 alpha_mix =  0.700 |ddv_scf|^2 =  4.976E-11

      iter #   4 total cpu time :  3258.3 secs   av.it.:  14.6
      thresh= 7.054E-07 alpha_mix =  0.700 |ddv_scf|^2 =  4.903E-13

      iter #   5 total cpu time :  3284.5 secs   av.it.:  15.5
      thresh= 7.002E-08 alpha_mix =  0.700 |ddv_scf|^2 =  5.501E-14

      iter #   6 total cpu time :  3310.0 secs   av.it.:  14.9
      thresh= 2.345E-08 alpha_mix =  0.700 |ddv_scf|^2 =  6.921E-16

     End of self-consistent calculation

     Convergence has been achieved 


     Representation #  30 modes #  37  38

     Self-consistent Calculation

      iter #   1 total cpu time :  3325.2 secs   av.it.:   6.8
      thresh= 1.000E-02 alpha_mix =  0.700 |ddv_scf|^2 =  6.011E-08

      iter #   2 total cpu time :  3350.8 secs   av.it.:  15.1
      thresh= 2.452E-05 alpha_mix =  0.700 |ddv_scf|^2 =  1.721E-08

      iter #   3 total cpu time :  3376.0 secs   av.it.:  14.8
      thresh= 1.312E-05 alpha_mix =  0.700 |ddv_scf|^2 =  1.603E-09

      iter #   4 total cpu time :  3402.2 secs   av.it.:  14.8
      thresh= 4.003E-06 alpha_mix =  0.700 |ddv_scf|^2 =  4.332E-11

      iter #   5 total cpu time :  3427.6 secs   av.it.:  14.8
      thresh= 6.582E-07 alpha_mix =  0.700 |ddv_scf|^2 =  1.295E-13

      iter #   6 total cpu time :  3452.7 secs   av.it.:  14.8
      thresh= 3.599E-08 alpha_mix =  0.700 |ddv_scf|^2 =  2.143E-15

     End of self-consistent calculation

     Convergence has been achieved 


     Representation #  31 modes #  39  40

     Self-consistent Calculation

      iter #   1 total cpu time :  3467.1 secs   av.it.:   6.0
      thresh= 1.000E-02 alpha_mix =  0.700 |ddv_scf|^2 =  1.829E-08

      iter #   2 total cpu time :  3493.8 secs   av.it.:  15.8
      thresh= 1.352E-05 alpha_mix =  0.700 |ddv_scf|^2 =  1.859E-08

      iter #   3 total cpu time :  3519.2 secs   av.it.:  14.8
      thresh= 1.363E-05 alpha_mix =  0.700 |ddv_scf|^2 =  6.108E-10

      iter #   4 total cpu time :  3544.1 secs   av.it.:  14.7
      thresh= 2.471E-06 alpha_mix =  0.700 |ddv_scf|^2 =  1.638E-11

      iter #   5 total cpu time :  3570.0 secs   av.it.:  15.3
      thresh= 4.048E-07 alpha_mix =  0.700 |ddv_scf|^2 =  1.531E-12

      iter #   6 total cpu time :  3595.3 secs   av.it.:  14.8
      thresh= 1.238E-07 alpha_mix =  0.700 |ddv_scf|^2 =  2.378E-14

      iter #   7 total cpu time :  3620.4 secs   av.it.:  14.8
      thresh= 1.542E-08 alpha_mix =  0.700 |ddv_scf|^2 =  3.100E-16

     End of self-consistent calculation

     Convergence has been achieved 


     Representation #  32 modes #  41  42

     Self-consistent Calculation

      iter #   1 total cpu time :  3632.8 secs   av.it.:   5.0
      thresh= 1.000E-02 alpha_mix =  0.700 |ddv_scf|^2 =  1.907E-09

      iter #   2 total cpu time :  3659.6 secs   av.it.:  15.8
      thresh= 4.366E-06 alpha_mix =  0.700 |ddv_scf|^2 =  3.397E-09

      iter #   3 total cpu time :  3684.7 secs   av.it.:  14.8
      thresh= 5.829E-06 alpha_mix =  0.700 |ddv_scf|^2 =  4.776E-12

      iter #   4 total cpu time :  3711.0 secs   av.it.:  15.7
      thresh= 2.185E-07 alpha_mix =  0.700 |ddv_scf|^2 =  8.041E-13

      iter #   5 total cpu time :  3736.7 secs   av.it.:  15.0
      thresh= 8.967E-08 alpha_mix =  0.700 |ddv_scf|^2 =  1.179E-14

      iter #   6 total cpu time :  3762.2 secs   av.it.:  14.9
      thresh= 1.086E-08 alpha_mix =  0.700 |ddv_scf|^2 =  4.831E-16

     End of self-consistent calculation

     Convergence has been achieved 


     Representation #  33 modes #  43  44

     Self-consistent Calculation

      iter #   1 total cpu time :  3777.4 secs   av.it.:   6.5
      thresh= 1.000E-02 alpha_mix =  0.700 |ddv_scf|^2 =  2.441E-08

      iter #   2 total cpu time :  3803.4 secs   av.it.:  15.4
      thresh= 1.562E-05 alpha_mix =  0.700 |ddv_scf|^2 =  7.623E-09

      iter #   3 total cpu time :  3829.2 secs   av.it.:  15.0
      thresh= 8.731E-06 alpha_mix =  0.700 |ddv_scf|^2 =  1.642E-09

      iter #   4 total cpu time :  3854.5 secs   av.it.:  14.7
      thresh= 4.052E-06 alpha_mix =  0.700 |ddv_scf|^2 =  5.105E-12

      iter #   5 total cpu time :  3879.9 secs   av.it.:  14.8
      thresh= 2.259E-07 alpha_mix =  0.700 |ddv_scf|^2 =  1.065E-13

      iter #   6 total cpu time :  3905.0 secs   av.it.:  14.8
      thresh= 3.263E-08 alpha_mix =  0.700 |ddv_scf|^2 =  3.724E-15

     End of self-consistent calculation

     Convergence has been achieved 


     Representation #  34 modes #  45  46

     Self-consistent Calculation

      iter #   1 total cpu time :  3916.5 secs   av.it.:   4.0
      thresh= 1.000E-02 alpha_mix =  0.700 |ddv_scf|^2 =  6.211E-10

      iter #   2 total cpu time :  3943.1 secs   av.it.:  15.7
      thresh= 2.492E-06 alpha_mix =  0.700 |ddv_scf|^2 =  8.405E-10

      iter #   3 total cpu time :  3968.0 secs   av.it.:  14.5
      thresh= 2.899E-06 alpha_mix =  0.700 |ddv_scf|^2 =  5.517E-12

      iter #   4 total cpu time :  3993.0 secs   av.it.:  14.6
      thresh= 2.349E-07 alpha_mix =  0.700 |ddv_scf|^2 =  1.967E-13

      iter #   5 total cpu time :  4018.1 secs   av.it.:  14.7
      thresh= 4.435E-08 alpha_mix =  0.700 |ddv_scf|^2 =  5.340E-15

     End of self-consistent calculation

     Convergence has been achieved 


     Representation #  35 modes #  47  48

     Self-consistent Calculation

      iter #   1 total cpu time :  4033.4 secs   av.it.:   7.0
      thresh= 1.000E-02 alpha_mix =  0.700 |ddv_scf|^2 =  5.910E-08

      iter #   2 total cpu time :  4059.2 secs   av.it.:  15.3
      thresh= 2.431E-05 alpha_mix =  0.700 |ddv_scf|^2 =  7.324E-09

      iter #   3 total cpu time :  4084.3 secs   av.it.:  14.8
      thresh= 8.558E-06 alpha_mix =  0.700 |ddv_scf|^2 =  3.972E-10

      iter #   4 total cpu time :  4110.3 secs   av.it.:  15.4
      thresh= 1.993E-06 alpha_mix =  0.700 |ddv_scf|^2 =  9.506E-11

      iter #   5 total cpu time :  4135.8 secs   av.it.:  14.8
      thresh= 9.750E-07 alpha_mix =  0.700 |ddv_scf|^2 =  1.216E-12

      iter #   6 total cpu time :  4161.1 secs   av.it.:  14.8
      thresh= 1.103E-07 alpha_mix =  0.700 |ddv_scf|^2 =  3.059E-15

     End of self-consistent calculation

     Convergence has been achieved 

     Number of q in the star =    1
     List of q in the star:
          1   0.000000000   0.000000000   0.000000000

          Dielectric constant in cartesian axis 

          (       2.279791825       0.000000000       0.000000000 )
          (       0.000000000       2.279791825       0.000000000 )
          (       0.000000000       0.000000000       2.665769594 )

          Effective charges (d Force / dE) in cartesian axis without acoustic sum rule applied (asr)

           atom    1  O     Mean Z*:       -1.50293
      Ex  (       -0.93454        0.13379        0.00000 )
      Ey  (        0.13379       -0.93454        0.00000 )
      Ez  (        0.00000        0.00000       -2.63972 )
           atom    2  O     Mean Z*:       -1.50293
      Ex  (       -0.93454       -0.13379        0.00000 )
      Ey  (       -0.13379       -0.93454        0.00000 )
      Ez  (        0.00000        0.00000       -2.63972 )
           atom    3  N     Mean Z*:       -1.08140
      Ex  (       -1.10321       -0.46182        0.25044 )
      Ey  (       -0.46182       -1.10321        0.25044 )
      Ez  (        0.26254        0.26254       -1.03779 )
           atom    4  N     Mean Z*:       -1.08140
      Ex  (       -1.10321        0.46182       -0.25044 )
      Ey  (        0.46182       -1.10321        0.25044 )
      Ez  (       -0.26254        0.26254       -1.03779 )
           atom    5  N     Mean Z*:       -1.08140
      Ex  (       -1.10321       -0.46182       -0.25044 )
      Ey  (       -0.46182       -1.10321       -0.25044 )
      Ez  (       -0.26254       -0.26254       -1.03779 )
           atom    6  N     Mean Z*:       -1.08140
      Ex  (       -1.10321        0.46182        0.25044 )
      Ey  (        0.46182       -1.10321       -0.25044 )
      Ez  (        0.26254       -0.26254       -1.03779 )
           atom    7  C     Mean Z*:        1.84776
      Ex  (        1.35793        1.07043        0.00000 )
      Ey  (        1.07043        1.35793        0.00000 )
      Ez  (        0.00000        0.00000        2.82744 )
           atom    8  C     Mean Z*:        1.84776
      Ex  (        1.35793       -1.07043        0.00000 )
      Ey  (       -1.07043        1.35793        0.00000 )
      Ez  (        0.00000        0.00000        2.82744 )
           atom    9  H     Mean Z*:        0.47008
      Ex  (        0.57763        0.27851        0.16527 )
      Ey  (        0.27851        0.57763        0.16527 )
      Ez  (        0.19263        0.19263        0.25499 )
           atom   10  H     Mean Z*:        0.47008
      Ex  (        0.57763       -0.27851       -0.16527 )
      Ey  (       -0.27851        0.57763        0.16527 )
      Ez  (       -0.19263        0.19263        0.25499 )
           atom   11  H     Mean Z*:        0.47008
      Ex  (        0.57763        0.27851       -0.16527 )
      Ey  (        0.27851        0.57763       -0.16527 )
      Ez  (       -0.19263       -0.19263        0.25499 )
           atom   12  H     Mean Z*:        0.47008
      Ex  (        0.57763       -0.27851        0.16527 )
      Ey  (       -0.27851        0.57763       -0.16527 )
      Ez  (        0.19263       -0.19263        0.25499 )
           atom   13  H     Mean Z*:        0.43982
      Ex  (        0.31467       -0.07986        0.03652 )
      Ey  (       -0.07986        0.31467        0.03652 )
      Ez  (        0.10197        0.10197        0.69011 )
           atom   14  H     Mean Z*:        0.43982
      Ex  (        0.31467        0.07986       -0.03652 )
      Ey  (        0.07986        0.31467        0.03652 )
      Ez  (       -0.10197        0.10197        0.69011 )
           atom   15  H     Mean Z*:        0.43982
      Ex  (        0.31467       -0.07986       -0.03652 )
      Ey  (       -0.07986        0.31467       -0.03652 )
      Ez  (       -0.10197       -0.10197        0.69011 )
           atom   16  H     Mean Z*:        0.43982
      Ex  (        0.31467        0.07986        0.03652 )
      Ey  (        0.07986        0.31467       -0.03652 )
      Ez  (        0.10197       -0.10197        0.69011 )

          Effective charges Sum: Mean:        0.00366
              0.00317       -0.00000        0.00000
              0.00000        0.00317        0.00000
             -0.00000       -0.00000        0.00465

          Effective charges (d Force / dE) in cartesian axis with asr applied: 
           atom    1  O     Mean Z*:       -1.50316
      E*x (       -0.93474        0.13379        0.00000 )
      E*y (        0.13379       -0.93474        0.00000 )
      E*z (        0.00000       -0.00000       -2.64001 )
           atom    2  O     Mean Z*:       -1.50316
      E*x (       -0.93474       -0.13379        0.00000 )
      E*y (       -0.13379       -0.93474        0.00000 )
      E*z (        0.00000       -0.00000       -2.64001 )
           atom    3  N     Mean Z*:       -1.08163
      E*x (       -1.10340       -0.46182        0.25044 )
      E*y (       -0.46182       -1.10340        0.25044 )
      E*z (        0.26254        0.26254       -1.03808 )
           atom    4  N     Mean Z*:       -1.08163
      E*x (       -1.10340        0.46182       -0.25044 )
      E*y (        0.46182       -1.10340        0.25044 )
      E*z (       -0.26254        0.26254       -1.03808 )
           atom    5  N     Mean Z*:       -1.08163
      E*x (       -1.10340       -0.46182       -0.25044 )
      E*y (       -0.46182       -1.10340       -0.25044 )
      E*z (       -0.26254       -0.26254       -1.03808 )
           atom    6  N     Mean Z*:       -1.08163
      E*x (       -1.10340        0.46182        0.25044 )
      E*y (        0.46182       -1.10340       -0.25044 )
      E*z (        0.26254       -0.26254       -1.03808 )
           atom    7  C     Mean Z*:        1.84753
      E*x (        1.35773        1.07043        0.00000 )
      E*y (        1.07043        1.35773        0.00000 )
      E*z (        0.00000       -0.00000        2.82715 )
           atom    8  C     Mean Z*:        1.84753
      E*x (        1.35773       -1.07043        0.00000 )
      E*y (       -1.07043        1.35773        0.00000 )
      E*z (        0.00000       -0.00000        2.82715 )
           atom    9  H     Mean Z*:        0.46985
      E*x (        0.57743        0.27851        0.16527 )
      E*y (        0.27851        0.57743        0.16527 )
      E*z (        0.19263        0.19263        0.25470 )
           atom   10  H     Mean Z*:        0.46985
      E*x (        0.57743       -0.27851       -0.16527 )
      E*y (       -0.27851        0.57743        0.16527 )
      E*z (       -0.19263        0.19263        0.25470 )
           atom   11  H     Mean Z*:        0.46985
      E*x (        0.57743        0.27851       -0.16527 )
      E*y (        0.27851        0.57743       -0.16527 )
      E*z (       -0.19263       -0.19263        0.25470 )
           atom   12  H     Mean Z*:        0.46985
      E*x (        0.57743       -0.27851        0.16527 )
      E*y (       -0.27851        0.57743       -0.16527 )
      E*z (        0.19263       -0.19263        0.25470 )
           atom   13  H     Mean Z*:        0.43959
      E*x (        0.31448       -0.07986        0.03652 )
      E*y (       -0.07986        0.31448        0.03652 )
      E*z (        0.10197        0.10197        0.68982 )
           atom   14  H     Mean Z*:        0.43959
      E*x (        0.31448        0.07986       -0.03652 )
      E*y (        0.07986        0.31448        0.03652 )
      E*z (       -0.10197        0.10197        0.68982 )
           atom   15  H     Mean Z*:        0.43959
      E*x (        0.31448       -0.07986       -0.03652 )
      E*y (       -0.07986        0.31448       -0.03652 )
      E*z (       -0.10197       -0.10197        0.68982 )
           atom   16  H     Mean Z*:        0.43959
      E*x (        0.31448        0.07986        0.03652 )
      E*y (        0.07986        0.31448       -0.03652 )
      E*z (        0.10197       -0.10197        0.68982 )

     Diagonalizing the dynamical matrix

     q = (    0.000000000   0.000000000   0.000000000 ) 

 **************************************************************************
     freq (    1) =      -0.281119 [THz] =      -9.377108 [cm-1]
     freq (    2) =      -0.281119 [THz] =      -9.377108 [cm-1]
     freq (    3) =       0.295981 [THz] =       9.872874 [cm-1]
     freq (    4) =       1.682994 [THz] =      56.138635 [cm-1]
     freq (    5) =       2.255209 [THz] =      75.225672 [cm-1]
     freq (    6) =       3.408792 [THz] =     113.705050 [cm-1]
     freq (    7) =       3.408792 [THz] =     113.705050 [cm-1]
     freq (    8) =       3.838105 [THz] =     128.025394 [cm-1]
     freq (    9) =       4.998915 [THz] =     166.745846 [cm-1]
     freq (   10) =       4.998915 [THz] =     166.745846 [cm-1]
     freq (   11) =       6.153705 [THz] =     205.265493 [cm-1]
     freq (   12) =       6.153705 [THz] =     205.265493 [cm-1]
     freq (   13) =      11.579878 [THz] =     386.263140 [cm-1]
     freq (   14) =      15.658657 [THz] =     522.316587 [cm-1]
     freq (   15) =      15.658657 [THz] =     522.316587 [cm-1]
     freq (   16) =      16.521745 [THz] =     551.106104 [cm-1]
     freq (   17) =      16.741747 [THz] =     558.444584 [cm-1]
     freq (   18) =      16.741747 [THz] =     558.444584 [cm-1]
     freq (   19) =      17.118326 [THz] =     571.005893 [cm-1]
     freq (   20) =      17.944274 [THz] =     598.556550 [cm-1]
     freq (   21) =      19.252555 [THz] =     642.196107 [cm-1]
     freq (   22) =      20.242159 [THz] =     675.205756 [cm-1]
     freq (   23) =      22.600761 [THz] =     753.880234 [cm-1]
     freq (   24) =      22.600761 [THz] =     753.880234 [cm-1]
     freq (   25) =      23.627506 [THz] =     788.128766 [cm-1]
     freq (   26) =      23.627506 [THz] =     788.128766 [cm-1]
     freq (   27) =      30.327805 [THz] =    1011.626687 [cm-1]
     freq (   28) =      30.469363 [THz] =    1016.348539 [cm-1]
     freq (   29) =      32.073774 [THz] =    1069.865930 [cm-1]
     freq (   30) =      32.073774 [THz] =    1069.865930 [cm-1]
     freq (   31) =      33.832064 [THz] =    1128.516191 [cm-1]
     freq (   32) =      34.951497 [THz] =    1165.856434 [cm-1]
     freq (   33) =      44.133604 [THz] =    1472.138580 [cm-1]
     freq (   34) =      44.133604 [THz] =    1472.138580 [cm-1]
     freq (   35) =      44.874270 [THz] =    1496.844535 [cm-1]
     freq (   36) =      46.745144 [THz] =    1559.250171 [cm-1]
     freq (   37) =      48.277263 [THz] =    1610.356139 [cm-1]
     freq (   38) =      48.277263 [THz] =    1610.356139 [cm-1]
     freq (   39) =      48.665596 [THz] =    1623.309538 [cm-1]
     freq (   40) =      49.715789 [THz] =    1658.340216 [cm-1]
     freq (   41) =      99.971401 [THz] =    3334.686999 [cm-1]
     freq (   42) =      99.971401 [THz] =    3334.686999 [cm-1]
     freq (   43) =     100.810016 [THz] =    3362.660172 [cm-1]
     freq (   44) =     100.949959 [THz] =    3367.328174 [cm-1]
     freq (   45) =     104.110396 [THz] =    3472.749011 [cm-1]
     freq (   46) =     104.110396 [THz] =    3472.749011 [cm-1]
     freq (   47) =     104.124651 [THz] =    3473.224488 [cm-1]
     freq (   48) =     105.119781 [THz] =    3506.418454 [cm-1]
 **************************************************************************

     Mode symmetry, D_2d (-42m) point group:

     freq (   1-   2) =         -9.4  [cm-1]   --> E    X_5  W_3   I+R
     freq (   3-   3) =          9.9  [cm-1]   --> B_2  X_3  W_2   I+R
     freq (   4-   4) =         56.1  [cm-1]   --> B_1  X_2  W_1'  R  
     freq (   5-   5) =         75.2  [cm-1]   --> A_2  X_4  W_2'     
     freq (   6-   7) =        113.7  [cm-1]   --> E    X_5  W_3   I+R
     freq (   8-   8) =        128.0  [cm-1]   --> A_1  X_1  W_1   R  
     freq (   9-  10) =        166.7  [cm-1]   --> E    X_5  W_3   I+R
     freq (  11-  12) =        205.3  [cm-1]   --> E    X_5  W_3   I+R
     freq (  13-  13) =        386.3  [cm-1]   --> B_1  X_2  W_1'  R  
     freq (  14-  15) =        522.3  [cm-1]   --> E    X_5  W_3   I+R
     freq (  16-  16) =        551.1  [cm-1]   --> A_1  X_1  W_1   R  
     freq (  17-  18) =        558.4  [cm-1]   --> E    X_5  W_3   I+R
     freq (  19-  19) =        571.0  [cm-1]   --> B_2  X_3  W_2   I+R
     freq (  20-  20) =        598.6  [cm-1]   --> A_2  X_4  W_2'     
     freq (  21-  21) =        642.2  [cm-1]   --> B_1  X_2  W_1'  R  
     freq (  22-  22) =        675.2  [cm-1]   --> A_2  X_4  W_2'     
     freq (  23-  24) =        753.9  [cm-1]   --> E    X_5  W_3   I+R
     freq (  25-  26) =        788.1  [cm-1]   --> E    X_5  W_3   I+R
     freq (  27-  27) =       1011.6  [cm-1]   --> B_2  X_3  W_2   I+R
     freq (  28-  28) =       1016.3  [cm-1]   --> A_1  X_1  W_1   R  
     freq (  29-  30) =       1069.9  [cm-1]   --> E    X_5  W_3   I+R
     freq (  31-  31) =       1128.5  [cm-1]   --> B_2  X_3  W_2   I+R
     freq (  32-  32) =       1165.9  [cm-1]   --> A_1  X_1  W_1   R  
     freq (  33-  34) =       1472.1  [cm-1]   --> E    X_5  W_3   I+R
     freq (  35-  35) =       1496.8  [cm-1]   --> A_1  X_1  W_1   R  
     freq (  36-  36) =       1559.3  [cm-1]   --> B_2  X_3  W_2   I+R
     freq (  37-  38) =       1610.4  [cm-1]   --> E    X_5  W_3   I+R
     freq (  39-  39) =       1623.3  [cm-1]   --> A_1  X_1  W_1   R  
     freq (  40-  40) =       1658.3  [cm-1]   --> B_2  X_3  W_2   I+R
     freq (  41-  42) =       3334.7  [cm-1]   --> E    X_5  W_3   I+R
     freq (  43-  43) =       3362.7  [cm-1]   --> A_1  X_1  W_1   R  
     freq (  44-  44) =       3367.3  [cm-1]   --> B_2  X_3  W_2   I+R
     freq (  45-  46) =       3472.7  [cm-1]   --> E    X_5  W_3   I+R
     freq (  47-  47) =       3473.2  [cm-1]   --> A_1  X_1  W_1   R  
     freq (  48-  48) =       3506.4  [cm-1]   --> B_2  X_3  W_2   I+R

     PHONON       :      1h 6m CPU      1h 9m WALL

     INITIALIZATION: 
     phq_setup    :      0.23s CPU      0.23s WALL (       1 calls)
     phq_init     :     68.63s CPU     69.85s WALL (       1 calls)

     phq_init     :     68.63s CPU     69.85s WALL (       1 calls)
     set_drhoc    :      0.00s CPU      0.00s WALL (       3 calls)
     init_vloc    :      0.01s CPU      0.01s WALL (       1 calls)
     init_us_1    :      0.04s CPU      0.04s WALL (       1 calls)
     init_us_2    :     17.45s CPU     19.05s WALL (    7656 calls)
     newd         :      0.13s CPU      0.14s WALL (       1 calls)
     dvanqq       :     35.22s CPU     35.34s WALL (       1 calls)
     drho         :     29.51s CPU     30.25s WALL (       1 calls)
     drhous       :     17.27s CPU     17.85s WALL (       1 calls)
     nldyntot     :      0.19s CPU      0.19s WALL (       1 calls)
     cmpt_qdipol  :      0.00s CPU      0.00s WALL (       1 calls)

     DIELECTRIC CONSTANT AND EFFECTIVE CHARGES:
     solve_e      :    351.54s CPU    365.45s WALL (       1 calls)
     dielec       :      0.02s CPU      0.07s WALL (       1 calls)
     zstar_eu     :    121.26s CPU    126.30s WALL (       1 calls)

     DYNAMICAL MATRIX:
     dynmat0      :      3.71s CPU      4.05s WALL (       1 calls)
     dynmat_us    :      0.45s CPU      0.47s WALL (       1 calls)
     addusdynmat  :      0.00s CPU      0.00s WALL (       1 calls)
     d2ionq       :      0.37s CPU      0.37s WALL (       1 calls)
     dynmatcc     :      0.10s CPU      0.11s WALL (       1 calls)
     phqscf       :   3457.28s CPU   3599.10s WALL (       1 calls)
     dynmatrix    :      0.01s CPU      0.01s WALL (       1 calls)

     phqscf       :   3457.28s CPU   3599.10s WALL (       1 calls)
     solve_linter :   3447.07s CPU   3587.65s WALL (      35 calls)
     sth_kernel   :   3396.51s CPU   3536.44s WALL (     240 calls)
     h_prec       :      1.93s CPU      1.95s WALL (    5832 calls)
     apply_dpot_b :     68.99s CPU     76.02s WALL (    6816 calls)
     ortho        :     28.59s CPU     29.37s WALL (    8112 calls)
     cgsolve      :   3223.90s CPU   3343.58s WALL (    8112 calls)
     incdrhoscf   :     99.25s CPU    107.32s WALL (    8112 calls)
                                        0.00s GPU  (    8112 calls)
     addusddens   :     79.05s CPU     80.19s WALL (     267 calls)
     dv_of_drho   :     24.51s CPU     25.77s WALL (     338 calls)
     mix_pot      :      4.27s CPU      6.91s WALL (     240 calls)
     drhodv       :     10.12s CPU     10.85s WALL (      35 calls)
     psymdvscf    :     48.27s CPU     49.83s WALL (     232 calls)
     newdq        :     67.87s CPU     68.57s WALL (     240 calls)
     adddvscf     :     14.19s CPU     14.34s WALL (    6816 calls)
     drhodvus     :      1.17s CPU      2.05s WALL (      35 calls)

     dvqpsi_us    :     37.39s CPU     39.58s WALL (    2304 calls)
                                        0.00s GPU  (    2304 calls)
     dvqpsi_us_on :     11.99s CPU     12.11s WALL (    2304 calls)

     add_vuspsi   :    151.73s CPU    153.43s WALL (  151845 calls)
     addusdbec    :     13.70s CPU     14.17s WALL (    9264 calls)

     drhodvus     :      1.17s CPU      2.05s WALL (      35 calls)

      General routines
     calbec       :    431.05s CPU    444.03s WALL (  353706 calls)
     fft          :     27.52s CPU     30.42s WALL (    9529 calls)
     ffts         :      2.37s CPU      2.49s WALL (    4754 calls)
     fftw         :   1082.91s CPU   1151.62s WALL ( 6224488 calls)
     davcio       :      9.51s CPU     19.35s WALL (   46767 calls)
     write_rec    :      0.20s CPU      1.31s WALL (     275 calls)

      Additional routines
     ch_psi       :   2904.69s CPU   3019.42s WALL (  151845 calls)
     last         :    559.95s CPU    568.89s WALL (  151845 calls)
     Hesh         :     59.39s CPU     60.22s WALL (  151845 calls)
     ch_psi_all_k :    499.43s CPU    507.88s WALL (  151845 calls)
                                        0.00s GPU  (  151845 calls)
     ch_psi_calbe :    157.98s CPU    160.84s WALL (  151845 calls)
                                        0.00s GPU  (  151845 calls)
     h_psi_bgrp   :   2077.65s CPU   2180.49s WALL (  151845 calls)
     h_psi        :   2077.19s CPU   2180.18s WALL (  151845 calls)
     h_psi:pot    :   2026.34s CPU   2128.75s WALL (  151845 calls)
     h_psi:calbec :    215.58s CPU    223.36s WALL (  151845 calls)
     s_psi_bgrp   :    316.95s CPU    320.73s WALL (  311874 calls)
     s_psi        :    264.48s CPU    267.81s WALL (  311874 calls)


     PHONON       :      1h 6m CPU      1h 9m WALL


   This run was terminated on:   0:25:59  28Sep2024            

=------------------------------------------------------------------------------=
   JOB DONE.
=------------------------------------------------------------------------------=
