phonopy:
  version: "2.26.3"
  calculator: qe
  frequency_unit_conversion_factor: 15.633302
  symmetry_tolerance: 1.00000e-05
  configuration:
    cell_filename: "urea.scf.in"
    create_displacements: ".true."
    dim: "1 1 1"
    calculator: "qe"

physical_unit:
  atomic_mass: "AMU"
  length: "au"

space_group:
  type: "P-42_1m"
  number: 113
  Hall_symbol: "P -4 2ab"

supercell_matrix:
- [   1,   0,   0 ]
- [   0,   1,   0 ]
- [   0,   0,   1 ]

primitive_cell:
  lattice:
  - [    10.482309406498874,     0.000000000000000,     0.000000000000000 ] # a
  - [     0.000000000000000,    10.482309406498874,     0.000000000000000 ] # b
  - [     0.000000000000000,     0.000000000000000,     8.820412609173541 ] # c
  points:
  - symbol: O  # 1
    coordinates: [  0.000000000000000,  0.500000000000000,  0.600937712400000 ]
    mass: 15.999400
  - symbol: O  # 2
    coordinates: [  0.500000000000000,  0.000000000000000,  0.399062287600000 ]
    mass: 15.999400
  - symbol: N  # 3
    coordinates: [  0.146850572500000,  0.646850572500000,  0.177888534200000 ]
    mass: 14.006700
  - symbol: N  # 4
    coordinates: [  0.646850572500000,  0.853149427500000,  0.822111465800000 ]
    mass: 14.006700
  - symbol: N  # 5
    coordinates: [  0.853149427500000,  0.353149427500000,  0.177888534200000 ]
    mass: 14.006700
  - symbol: N  # 6
    coordinates: [  0.353149427500000,  0.146850572500000,  0.822111465800000 ]
    mass: 14.006700
  - symbol: C  # 7
    coordinates: [  0.000000000000000,  0.500000000000000,  0.327772838300000 ]
    mass: 12.010700
  - symbol: C  # 8
    coordinates: [  0.500000000000000,  0.000000000000000,  0.672227161700000 ]
    mass: 12.010700
  - symbol: H  # 9
    coordinates: [  0.261011130200000,  0.761011130200000,  0.282653108300000 ]
    mass: 1.007940
  - symbol: H  # 10
    coordinates: [  0.761011130200000,  0.738988869800000,  0.717346891700000 ]
    mass: 1.007940
  - symbol: H  # 11
    coordinates: [  0.738988869800000,  0.238988869800000,  0.282653108300000 ]
    mass: 1.007940
  - symbol: H  # 12
    coordinates: [  0.238988869800000,  0.261011130200000,  0.717346891700000 ]
    mass: 1.007940
  - symbol: H  # 13
    coordinates: [  0.144790273400000,  0.644790273400000,  0.959635469400000 ]
    mass: 1.007940
  - symbol: H  # 14
    coordinates: [  0.644790273400000,  0.855209726600000,  0.040364530600000 ]
    mass: 1.007940
  - symbol: H  # 15
    coordinates: [  0.855209726600000,  0.355209726600000,  0.959635469400000 ]
    mass: 1.007940
  - symbol: H  # 16
    coordinates: [  0.355209726600000,  0.144790273400000,  0.040364530600000 ]
    mass: 1.007940
  reciprocal_lattice: # without 2pi
  - [     0.095398824936422,     0.000000000000000,     0.000000000000000 ] # a*
  - [     0.000000000000000,     0.095398824936422,     0.000000000000000 ] # b*
  - [     0.000000000000000,     0.000000000000000,     0.113373381077430 ] # c*

unit_cell:
  lattice:
  - [    10.482309406498874,     0.000000000000000,     0.000000000000000 ] # a
  - [     0.000000000000000,    10.482309406498874,     0.000000000000000 ] # b
  - [     0.000000000000000,     0.000000000000000,     8.820412609173541 ] # c
  points:
  - symbol: O  # 1
    coordinates: [  0.000000000000000,  0.500000000000000,  0.600937712400000 ]
    mass: 15.999400
    reduced_to: 1
  - symbol: O  # 2
    coordinates: [  0.500000000000000,  0.000000000000000,  0.399062287600000 ]
    mass: 15.999400
    reduced_to: 2
  - symbol: N  # 3
    coordinates: [  0.146850572500000,  0.646850572500000,  0.177888534200000 ]
    mass: 14.006700
    reduced_to: 3
  - symbol: N  # 4
    coordinates: [  0.646850572500000,  0.853149427500000,  0.822111465800000 ]
    mass: 14.006700
    reduced_to: 4
  - symbol: N  # 5
    coordinates: [  0.853149427500000,  0.353149427500000,  0.177888534200000 ]
    mass: 14.006700
    reduced_to: 5
  - symbol: N  # 6
    coordinates: [  0.353149427500000,  0.146850572500000,  0.822111465800000 ]
    mass: 14.006700
    reduced_to: 6
  - symbol: C  # 7
    coordinates: [  0.000000000000000,  0.500000000000000,  0.327772838300000 ]
    mass: 12.010700
    reduced_to: 7
  - symbol: C  # 8
    coordinates: [  0.500000000000000,  0.000000000000000,  0.672227161700000 ]
    mass: 12.010700
    reduced_to: 8
  - symbol: H  # 9
    coordinates: [  0.261011130200000,  0.761011130200000,  0.282653108300000 ]
    mass: 1.007940
    reduced_to: 9
  - symbol: H  # 10
    coordinates: [  0.761011130200000,  0.738988869800000,  0.717346891700000 ]
    mass: 1.007940
    reduced_to: 10
  - symbol: H  # 11
    coordinates: [  0.738988869800000,  0.238988869800000,  0.282653108300000 ]
    mass: 1.007940
    reduced_to: 11
  - symbol: H  # 12
    coordinates: [  0.238988869800000,  0.261011130200000,  0.717346891700000 ]
    mass: 1.007940
    reduced_to: 12
  - symbol: H  # 13
    coordinates: [  0.144790273400000,  0.644790273400000,  0.959635469400000 ]
    mass: 1.007940
    reduced_to: 13
  - symbol: H  # 14
    coordinates: [  0.644790273400000,  0.855209726600000,  0.040364530600000 ]
    mass: 1.007940
    reduced_to: 14
  - symbol: H  # 15
    coordinates: [  0.855209726600000,  0.355209726600000,  0.959635469400000 ]
    mass: 1.007940
    reduced_to: 15
  - symbol: H  # 16
    coordinates: [  0.355209726600000,  0.144790273400000,  0.040364530600000 ]
    mass: 1.007940
    reduced_to: 16

supercell:
  lattice:
  - [    10.482309406498874,     0.000000000000000,     0.000000000000000 ] # a
  - [     0.000000000000000,    10.482309406498874,     0.000000000000000 ] # b
  - [     0.000000000000000,     0.000000000000000,     8.820412609173541 ] # c
  points:
  - symbol: O  # 1
    coordinates: [  0.000000000000000,  0.500000000000000,  0.600937712400000 ]
    mass: 15.999400
    reduced_to: 1
  - symbol: O  # 2
    coordinates: [  0.500000000000000,  0.000000000000000,  0.399062287600000 ]
    mass: 15.999400
    reduced_to: 2
  - symbol: N  # 3
    coordinates: [  0.146850572500000,  0.646850572500000,  0.177888534200000 ]
    mass: 14.006700
    reduced_to: 3
  - symbol: N  # 4
    coordinates: [  0.646850572500000,  0.853149427500000,  0.822111465800000 ]
    mass: 14.006700
    reduced_to: 4
  - symbol: N  # 5
    coordinates: [  0.853149427500000,  0.353149427500000,  0.177888534200000 ]
    mass: 14.006700
    reduced_to: 5
  - symbol: N  # 6
    coordinates: [  0.353149427500000,  0.146850572500000,  0.822111465800000 ]
    mass: 14.006700
    reduced_to: 6
  - symbol: C  # 7
    coordinates: [  0.000000000000000,  0.500000000000000,  0.327772838300000 ]
    mass: 12.010700
    reduced_to: 7
  - symbol: C  # 8
    coordinates: [  0.500000000000000,  0.000000000000000,  0.672227161700000 ]
    mass: 12.010700
    reduced_to: 8
  - symbol: H  # 9
    coordinates: [  0.261011130200000,  0.761011130200000,  0.282653108300000 ]
    mass: 1.007940
    reduced_to: 9
  - symbol: H  # 10
    coordinates: [  0.761011130200000,  0.738988869800000,  0.717346891700000 ]
    mass: 1.007940
    reduced_to: 10
  - symbol: H  # 11
    coordinates: [  0.738988869800000,  0.238988869800000,  0.282653108300000 ]
    mass: 1.007940
    reduced_to: 11
  - symbol: H  # 12
    coordinates: [  0.238988869800000,  0.261011130200000,  0.717346891700000 ]
    mass: 1.007940
    reduced_to: 12
  - symbol: H  # 13
    coordinates: [  0.144790273400000,  0.644790273400000,  0.959635469400000 ]
    mass: 1.007940
    reduced_to: 13
  - symbol: H  # 14
    coordinates: [  0.644790273400000,  0.855209726600000,  0.040364530600000 ]
    mass: 1.007940
    reduced_to: 14
  - symbol: H  # 15
    coordinates: [  0.855209726600000,  0.355209726600000,  0.959635469400000 ]
    mass: 1.007940
    reduced_to: 15
  - symbol: H  # 16
    coordinates: [  0.355209726600000,  0.144790273400000,  0.040364530600000 ]
    mass: 1.007940
    reduced_to: 16

displacements:
- atom:    1
  displacement:
    [   0.0153031107416438,  0.0000000000000000,  0.0128769096303805 ]
- atom:    1
  displacement:
    [  -0.0153031107416438,  0.0000000000000000, -0.0128769096303805 ]
- atom:    3
  displacement:
    [   0.0200000000000000,  0.0000000000000000,  0.0000000000000000 ]
- atom:    3
  displacement:
    [  -0.0200000000000000,  0.0000000000000000,  0.0000000000000000 ]
- atom:    3
  displacement:
    [   0.0000000000000000,  0.0000000000000000,  0.0200000000000000 ]
- atom:    3
  displacement:
    [   0.0000000000000000,  0.0000000000000000, -0.0200000000000000 ]
- atom:    7
  displacement:
    [   0.0153031107416438,  0.0000000000000000,  0.0128769096303805 ]
- atom:    7
  displacement:
    [  -0.0153031107416438,  0.0000000000000000, -0.0128769096303805 ]
- atom:    9
  displacement:
    [   0.0200000000000000,  0.0000000000000000,  0.0000000000000000 ]
- atom:    9
  displacement:
    [  -0.0200000000000000,  0.0000000000000000,  0.0000000000000000 ]
- atom:    9
  displacement:
    [   0.0000000000000000,  0.0000000000000000,  0.0200000000000000 ]
- atom:    9
  displacement:
    [   0.0000000000000000,  0.0000000000000000, -0.0200000000000000 ]
- atom:   13
  displacement:
    [   0.0200000000000000,  0.0000000000000000,  0.0000000000000000 ]
- atom:   13
  displacement:
    [  -0.0200000000000000,  0.0000000000000000,  0.0000000000000000 ]
- atom:   13
  displacement:
    [   0.0000000000000000,  0.0000000000000000,  0.0200000000000000 ]
- atom:   13
  displacement:
    [   0.0000000000000000,  0.0000000000000000, -0.0200000000000000 ]
