nqpoint: 1      
natom:   16     
reciprocal_lattice:
- [   0.09539882,   0.00000000,   0.00000000 ] # a*
- [   0.00000000,   0.09539882,   0.00000000 ] # b*
- [   0.00000000,   0.00000000,   0.11337338 ] # c*
phonon:
- q-position: [    0.0000000,    0.0000000,    0.0000000 ]
  dynamical_matrix:
  - [    0.0096865054,   -0.0000000000,    0.0032685553,    0.0000000000,   -0.0000000000,    0.0000000000,   -0.0003606236,    0.0000000000,    0.0000000000,    0.0000000000,    0.0000000000,    0.0000000000,    0.0015711309,    0.0000000000,   -0.0006769477,    0.0000000000,    0.0049647235,    0.0000000000,   -0.0011387997,    0.0000000000,    0.0011053449,    0.0000000000,    0.0002757751,    0.0000000000,    0.0015711309,    0.0000000000,   -0.0006769477,    0.0000000000,   -0.0049647235,    0.0000000000,   -0.0011387997,    0.0000000000,    0.0011053449,    0.0000000000,   -0.0002757751,    0.0000000000,   -0.0133336718,    0.0000000000,   -0.0021693320,    0.0000000000,    0.0000000000,    0.0000000000,    0.0010041964,    0.0000000000,   -0.0005574833,    0.0000000000,   -0.0000000000,    0.0000000000,    0.0006815002,    0.0000000000,    0.0023420390,    0.0000000000,   -0.0007444436,    0.0000000000,    0.0012921990,    0.0000000000,   -0.0028740653,    0.0000000000,   -0.0020139709,    0.0000000000,    0.0006815002,    0.0000000000,    0.0023420390,    0.0000000000,    0.0007444436,    0.0000000000,    0.0012921990,    0.0000000000,   -0.0028740653,    0.0000000000,    0.0020139709,    0.0000000000,   -0.0006573853,    0.0000000000,   -0.0033839228,    0.0000000000,    0.0001193460,    0.0000000000,   -0.0002234358,    0.0000000000,    0.0005145738,    0.0000000000,   -0.0001122729,    0.0000000000,   -0.0006573853,    0.0000000000,   -0.0033839228,    0.0000000000,   -0.0001193460,    0.0000000000,   -0.0002234358,    0.0000000000,    0.0005145738,    0.0000000000,    0.0001122729,    0.0000000000 ]
  - [    0.0032685553,   -0.0000000000,    0.0096865054,   -0.0000000000,   -0.0000000000,    0.0000000000,    0.0000000000,    0.0000000000,   -0.0003606236,    0.0000000000,   -0.0000000000,    0.0000000000,   -0.0006769477,    0.0000000000,    0.0015711309,    0.0000000000,    0.0049647235,    0.0000000000,    0.0011053449,    0.0000000000,   -0.0011387997,    0.0000000000,   -0.0002757751,    0.0000000000,   -0.0006769477,    0.0000000000,    0.0015711309,    0.0000000000,   -0.0049647235,    0.0000000000,    0.0011053449,    0.0000000000,   -0.0011387997,    0.0000000000,    0.0002757751,    0.0000000000,   -0.0021693320,    0.0000000000,   -0.0133336718,    0.0000000000,    0.0000000000,    0.0000000000,   -0.0005574833,    0.0000000000,    0.0010041964,    0.0000000000,    0.0000000000,    0.0000000000,    0.0023420390,    0.0000000000,    0.0006815002,    0.0000000000,   -0.0007444436,    0.0000000000,   -0.0028740653,    0.0000000000,    0.0012921990,    0.0000000000,    0.0020139709,    0.0000000000,    0.0023420390,    0.0000000000,    0.0006815002,    0.0000000000,    0.0007444436,    0.0000000000,   -0.0028740653,    0.0000000000,    0.0012921990,    0.0000000000,   -0.0020139709,    0.0000000000,   -0.0033839228,    0.0000000000,   -0.0006573853,    0.0000000000,    0.0001193460,    0.0000000000,    0.0005145738,    0.0000000000,   -0.0002234358,    0.0000000000,    0.0001122729,    0.0000000000,   -0.0033839228,    0.0000000000,   -0.0006573853,    0.0000000000,   -0.0001193460,    0.0000000000,    0.0005145738,    0.0000000000,   -0.0002234358,    0.0000000000,   -0.0001122729,    0.0000000000 ]
  - [   -0.0000000000,   -0.0000000000,   -0.0000000000,   -0.0000000000,    0.0704039914,   -0.0000000000,    0.0000000000,    0.0000000000,    0.0000000000,    0.0000000000,    0.0007000409,    0.0000000000,    0.0030603828,    0.0000000000,    0.0030603828,    0.0000000000,   -0.0112518892,    0.0000000000,    0.0008004682,    0.0000000000,   -0.0008004682,    0.0000000000,    0.0000025742,    0.0000000000,   -0.0030603828,    0.0000000000,   -0.0030603828,    0.0000000000,   -0.0112518892,    0.0000000000,   -0.0008004682,    0.0000000000,    0.0008004682,    0.0000000000,    0.0000025742,    0.0000000000,   -0.0000000000,    0.0000000000,    0.0000000000,    0.0000000000,   -0.0596740537,    0.0000000000,    0.0000000000,    0.0000000000,   -0.0000000000,    0.0000000000,   -0.0018486013,    0.0000000000,   -0.0014706323,    0.0000000000,   -0.0014706323,    0.0000000000,   -0.0021043485,    0.0000000000,   -0.0042452971,    0.0000000000,    0.0042452971,    0.0000000000,    0.0009560005,    0.0000000000,    0.0014706323,    0.0000000000,    0.0014706323,    0.0000000000,   -0.0021043485,    0.0000000000,    0.0042452971,    0.0000000000,   -0.0042452971,    0.0000000000,    0.0009560005,    0.0000000000,    0.0036635502,    0.0000000000,    0.0036635502,    0.0000000000,    0.0072860985,    0.0000000000,    0.0005648919,    0.0000000000,   -0.0005648919,    0.0000000000,    0.0003458389,    0.0000000000,   -0.0036635502,    0.0000000000,   -0.0036635502,    0.0000000000,    0.0072860985,    0.0000000000,   -0.0005648919,    0.0000000000,    0.0005648919,    0.0000000000,    0.0003458389,    0.0000000000 ]
  - [   -0.0003606236,   -0.0000000000,    0.0000000000,   -0.0000000000,    0.0000000000,   -0.0000000000,    0.0096865054,   -0.0000000000,   -0.0032685553,    0.0000000000,   -0.0000000000,    0.0000000000,   -0.0011387997,    0.0000000000,   -0.0011053449,    0.0000000000,   -0.0002757751,    0.0000000000,    0.0015711309,    0.0000000000,    0.0006769477,    0.0000000000,   -0.0049647235,    0.0000000000,   -0.0011387997,    0.0000000000,   -0.0011053449,    0.0000000000,    0.0002757751,    0.0000000000,    0.0015711309,    0.0000000000,    0.0006769477,    0.0000000000,    0.0049647235,    0.0000000000,    0.0010041964,    0.0000000000,    0.0005574833,    0.0000000000,   -0.0000000000,    0.0000000000,   -0.0133336718,    0.0000000000,    0.0021693320,    0.0000000000,    0.0000000000,    0.0000000000,    0.0012921990,    0.0000000000,    0.0028740653,    0.0000000000,    0.0020139709,    0.0000000000,    0.0006815002,    0.0000000000,   -0.0023420390,    0.0000000000,    0.0007444436,    0.0000000000,    0.0012921990,    0.0000000000,    0.0028740653,    0.0000000000,   -0.0020139709,    0.0000000000,    0.0006815002,    0.0000000000,   -0.0023420390,    0.0000000000,   -0.0007444436,    0.0000000000,   -0.0002234358,    0.0000000000,   -0.0005145738,    0.0000000000,    0.0001122729,    0.0000000000,   -0.0006573853,    0.0000000000,    0.0033839228,    0.0000000000,   -0.0001193460,    0.0000000000,   -0.0002234358,    0.0000000000,   -0.0005145738,    0.0000000000,   -0.0001122729,    0.0000000000,   -0.0006573853,    0.0000000000,    0.0033839228,    0.0000000000,    0.0001193460,    0.0000000000 ]
  - [    0.0000000000,   -0.0000000000,   -0.0003606236,   -0.0000000000,    0.0000000000,   -0.0000000000,   -0.0032685553,   -0.0000000000,    0.0096865054,   -0.0000000000,    0.0000000000,    0.0000000000,   -0.0011053449,    0.0000000000,   -0.0011387997,    0.0000000000,   -0.0002757751,    0.0000000000,    0.0006769477,    0.0000000000,    0.0015711309,    0.0000000000,    0.0049647235,    0.0000000000,   -0.0011053449,    0.0000000000,   -0.0011387997,    0.0000000000,    0.0002757751,    0.0000000000,    0.0006769477,    0.0000000000,    0.0015711309,    0.0000000000,   -0.0049647235,    0.0000000000,    0.0005574833,    0.0000000000,    0.0010041964,    0.0000000000,   -0.0000000000,    0.0000000000,    0.0021693320,    0.0000000000,   -0.0133336718,    0.0000000000,   -0.0000000000,    0.0000000000,    0.0028740653,    0.0000000000,    0.0012921990,    0.0000000000,    0.0020139709,    0.0000000000,   -0.0023420390,    0.0000000000,    0.0006815002,    0.0000000000,   -0.0007444436,    0.0000000000,    0.0028740653,    0.0000000000,    0.0012921990,    0.0000000000,   -0.0020139709,    0.0000000000,   -0.0023420390,    0.0000000000,    0.0006815002,    0.0000000000,    0.0007444436,    0.0000000000,   -0.0005145738,    0.0000000000,   -0.0002234358,    0.0000000000,    0.0001122729,    0.0000000000,    0.0033839228,    0.0000000000,   -0.0006573853,    0.0000000000,    0.0001193460,    0.0000000000,   -0.0005145738,    0.0000000000,   -0.0002234358,    0.0000000000,   -0.0001122729,    0.0000000000,    0.0033839228,    0.0000000000,   -0.0006573853,    0.0000000000,   -0.0001193460,    0.0000000000 ]
  - [    0.0000000000,   -0.0000000000,   -0.0000000000,   -0.0000000000,    0.0007000409,   -0.0000000000,   -0.0000000000,   -0.0000000000,    0.0000000000,   -0.0000000000,    0.0704039914,   -0.0000000000,   -0.0008004682,    0.0000000000,   -0.0008004682,    0.0000000000,    0.0000025742,    0.0000000000,   -0.0030603828,    0.0000000000,    0.0030603828,    0.0000000000,   -0.0112518892,    0.0000000000,    0.0008004682,    0.0000000000,    0.0008004682,    0.0000000000,    0.0000025742,    0.0000000000,    0.0030603828,    0.0000000000,   -0.0030603828,    0.0000000000,   -0.0112518892,    0.0000000000,   -0.0000000000,    0.0000000000,   -0.0000000000,    0.0000000000,   -0.0018486013,    0.0000000000,    0.0000000000,    0.0000000000,    0.0000000000,    0.0000000000,   -0.0596740537,    0.0000000000,    0.0042452971,    0.0000000000,    0.0042452971,    0.0000000000,    0.0009560005,    0.0000000000,    0.0014706323,    0.0000000000,   -0.0014706323,    0.0000000000,   -0.0021043485,    0.0000000000,   -0.0042452971,    0.0000000000,   -0.0042452971,    0.0000000000,    0.0009560005,    0.0000000000,   -0.0014706323,    0.0000000000,    0.0014706323,    0.0000000000,   -0.0021043485,    0.0000000000,   -0.0005648919,    0.0000000000,   -0.0005648919,    0.0000000000,    0.0003458389,    0.0000000000,   -0.0036635502,    0.0000000000,    0.0036635502,    0.0000000000,    0.0072860985,    0.0000000000,    0.0005648919,    0.0000000000,    0.0005648919,    0.0000000000,    0.0003458389,    0.0000000000,    0.0036635502,    0.0000000000,   -0.0036635502,    0.0000000000,    0.0072860985,    0.0000000000 ]
  - [    0.0015711309,   -0.0000000000,   -0.0006769477,   -0.0000000000,    0.0030603828,   -0.0000000000,   -0.0011387997,   -0.0000000000,   -0.0011053449,   -0.0000000000,   -0.0008004682,   -0.0000000000,    0.0575947404,   -0.0000000000,    0.0537519177,    0.0000000000,    0.0036800608,    0.0000000000,   -0.0007332741,    0.0000000000,   -0.0000640943,    0.0000000000,   -0.0001562551,    0.0000000000,   -0.0050036947,    0.0000000000,   -0.0066964927,    0.0000000000,    0.0013656594,    0.0000000000,    0.0001349354,    0.0000000000,    0.0000640943,    0.0000000000,    0.0000212940,    0.0000000000,   -0.0267589989,    0.0000000000,   -0.0190470877,    0.0000000000,    0.0089393981,    0.0000000000,    0.0001119210,    0.0000000000,   -0.0002610354,    0.0000000000,    0.0009452201,    0.0000000000,   -0.0861083142,    0.0000000000,   -0.0838472666,    0.0000000000,   -0.0551978555,    0.0000000000,    0.0013928897,    0.0000000000,   -0.0009672295,    0.0000000000,   -0.0002426165,    0.0000000000,    0.0028562760,    0.0000000000,   -0.0000289470,    0.0000000000,   -0.0025946869,    0.0000000000,   -0.0020717907,    0.0000000000,    0.0004769945,    0.0000000000,   -0.0006235413,    0.0000000000,   -0.0211592268,    0.0000000000,   -0.0175708172,    0.0000000000,   -0.0039749740,    0.0000000000,    0.0012851285,    0.0000000000,    0.0006843177,    0.0000000000,   -0.0000570524,    0.0000000000,    0.0000039838,    0.0000000000,    0.0001703627,    0.0000000000,    0.0013430584,    0.0000000000,    0.0002349289,    0.0000000000,   -0.0005895083,    0.0000000000,   -0.0000676315,    0.0000000000 ]
  - [   -0.0006769477,   -0.0000000000,    0.0015711309,   -0.0000000000,    0.0030603828,   -0.0000000000,   -0.0011053449,   -0.0000000000,   -0.0011387997,   -0.0000000000,   -0.0008004682,   -0.0000000000,    0.0537519177,   -0.0000000000,    0.0575947404,   -0.0000000000,    0.0036800608,    0.0000000000,    0.0000640943,    0.0000000000,    0.0001349354,    0.0000000000,    0.0000212940,    0.0000000000,   -0.0066964927,    0.0000000000,   -0.0050036947,    0.0000000000,    0.0013656594,    0.0000000000,   -0.0000640943,    0.0000000000,   -0.0007332741,    0.0000000000,   -0.0001562551,    0.0000000000,   -0.0190470877,    0.0000000000,   -0.0267589989,    0.0000000000,    0.0089393981,    0.0000000000,   -0.0002610354,    0.0000000000,    0.0001119210,    0.0000000000,    0.0009452201,    0.0000000000,   -0.0838472666,    0.0000000000,   -0.0861083142,    0.0000000000,   -0.0551978555,    0.0000000000,    0.0004769945,    0.0000000000,   -0.0020717907,    0.0000000000,   -0.0006235413,    0.0000000000,   -0.0000289470,    0.0000000000,    0.0028562760,    0.0000000000,   -0.0025946869,    0.0000000000,   -0.0009672295,    0.0000000000,    0.0013928897,    0.0000000000,   -0.0002426165,    0.0000000000,   -0.0175708172,    0.0000000000,   -0.0211592268,    0.0000000000,   -0.0039749740,    0.0000000000,   -0.0005895083,    0.0000000000,    0.0002349289,    0.0000000000,   -0.0000676315,    0.0000000000,    0.0001703627,    0.0000000000,    0.0000039838,    0.0000000000,    0.0013430584,    0.0000000000,    0.0006843177,    0.0000000000,    0.0012851285,    0.0000000000,   -0.0000570524,    0.0000000000 ]
  - [    0.0049647235,   -0.0000000000,    0.0049647235,   -0.0000000000,   -0.0112518892,   -0.0000000000,   -0.0002757751,   -0.0000000000,   -0.0002757751,   -0.0000000000,    0.0000025742,   -0.0000000000,    0.0036800608,   -0.0000000000,    0.0036800608,   -0.0000000000,    0.1135006629,   -0.0000000000,    0.0001562551,    0.0000000000,    0.0000212940,    0.0000000000,   -0.0001433253,    0.0000000000,   -0.0013656594,    0.0000000000,   -0.0013656594,    0.0000000000,    0.0027100413,    0.0000000000,    0.0000212940,    0.0000000000,    0.0001562551,    0.0000000000,   -0.0001433253,    0.0000000000,    0.0094728322,    0.0000000000,    0.0094728322,    0.0000000000,   -0.0263746960,    0.0000000000,   -0.0001130066,    0.0000000000,   -0.0001130066,    0.0000000000,    0.0002258416,    0.0000000000,   -0.0548969125,    0.0000000000,   -0.0548969125,    0.0000000000,   -0.0819528913,    0.0000000000,   -0.0011803431,    0.0000000000,    0.0019900167,    0.0000000000,    0.0007449005,    0.0000000000,   -0.0014725346,    0.0000000000,   -0.0014725346,    0.0000000000,   -0.0016631597,    0.0000000000,    0.0019900167,    0.0000000000,   -0.0011803431,    0.0000000000,    0.0007449005,    0.0000000000,   -0.0038521488,    0.0000000000,   -0.0038521488,    0.0000000000,   -0.2171222445,    0.0000000000,   -0.0000368624,    0.0000000000,   -0.0004043684,    0.0000000000,   -0.0000631840,    0.0000000000,   -0.0004281256,    0.0000000000,   -0.0004281256,    0.0000000000,    0.0022930449,    0.0000000000,   -0.0004043684,    0.0000000000,   -0.0000368624,    0.0000000000,   -0.0000631840,    0.0000000000 ]
  - [   -0.0011387997,   -0.0000000000,    0.0011053449,   -0.0000000000,    0.0008004682,   -0.0000000000,    0.0015711309,   -0.0000000000,    0.0006769477,   -0.0000000000,   -0.0030603828,   -0.0000000000,   -0.0007332741,   -0.0000000000,    0.0000640943,   -0.0000000000,    0.0001562551,   -0.0000000000,    0.0575947404,   -0.0000000000,   -0.0537519177,    0.0000000000,   -0.0036800608,    0.0000000000,    0.0001349354,    0.0000000000,   -0.0000640943,    0.0000000000,   -0.0000212940,    0.0000000000,   -0.0050036947,    0.0000000000,    0.0066964927,    0.0000000000,   -0.0013656594,    0.0000000000,    0.0001119210,    0.0000000000,    0.0002610354,    0.0000000000,   -0.0009452201,    0.0000000000,   -0.0267589989,    0.0000000000,    0.0190470877,    0.0000000000,   -0.0089393981,    0.0000000000,    0.0013928897,    0.0000000000,    0.0009672295,    0.0000000000,    0.0002426165,    0.0000000000,   -0.0861083142,    0.0000000000,    0.0838472666,    0.0000000000,    0.0551978555,    0.0000000000,   -0.0020717907,    0.0000000000,   -0.0004769945,    0.0000000000,    0.0006235413,    0.0000000000,    0.0028562760,    0.0000000000,    0.0000289470,    0.0000000000,    0.0025946869,    0.0000000000,    0.0012851285,    0.0000000000,   -0.0006843177,    0.0000000000,    0.0000570524,    0.0000000000,   -0.0211592268,    0.0000000000,    0.0175708172,    0.0000000000,    0.0039749740,    0.0000000000,    0.0002349289,    0.0000000000,    0.0005895083,    0.0000000000,    0.0000676315,    0.0000000000,    0.0000039838,    0.0000000000,   -0.0001703627,    0.0000000000,   -0.0013430584,    0.0000000000 ]
  - [    0.0011053449,   -0.0000000000,   -0.0011387997,   -0.0000000000,   -0.0008004682,   -0.0000000000,    0.0006769477,   -0.0000000000,    0.0015711309,   -0.0000000000,    0.0030603828,   -0.0000000000,   -0.0000640943,   -0.0000000000,    0.0001349354,   -0.0000000000,    0.0000212940,   -0.0000000000,   -0.0537519177,   -0.0000000000,    0.0575947404,   -0.0000000000,    0.0036800608,    0.0000000000,    0.0000640943,    0.0000000000,   -0.0007332741,    0.0000000000,   -0.0001562551,    0.0000000000,    0.0066964927,    0.0000000000,   -0.0050036947,    0.0000000000,    0.0013656594,    0.0000000000,    0.0002610354,    0.0000000000,    0.0001119210,    0.0000000000,    0.0009452201,    0.0000000000,    0.0190470877,    0.0000000000,   -0.0267589989,    0.0000000000,    0.0089393981,    0.0000000000,   -0.0004769945,    0.0000000000,   -0.0020717907,    0.0000000000,   -0.0006235413,    0.0000000000,    0.0838472666,    0.0000000000,   -0.0861083142,    0.0000000000,   -0.0551978555,    0.0000000000,    0.0009672295,    0.0000000000,    0.0013928897,    0.0000000000,   -0.0002426165,    0.0000000000,    0.0000289470,    0.0000000000,    0.0028562760,    0.0000000000,   -0.0025946869,    0.0000000000,    0.0005895083,    0.0000000000,    0.0002349289,    0.0000000000,   -0.0000676315,    0.0000000000,    0.0175708172,    0.0000000000,   -0.0211592268,    0.0000000000,   -0.0039749740,    0.0000000000,   -0.0006843177,    0.0000000000,    0.0012851285,    0.0000000000,   -0.0000570524,    0.0000000000,   -0.0001703627,    0.0000000000,    0.0000039838,    0.0000000000,    0.0013430584,    0.0000000000 ]
  - [    0.0002757751,   -0.0000000000,   -0.0002757751,   -0.0000000000,    0.0000025742,   -0.0000000000,   -0.0049647235,   -0.0000000000,    0.0049647235,   -0.0000000000,   -0.0112518892,   -0.0000000000,   -0.0001562551,   -0.0000000000,    0.0000212940,   -0.0000000000,   -0.0001433253,   -0.0000000000,   -0.0036800608,   -0.0000000000,    0.0036800608,   -0.0000000000,    0.1135006629,   -0.0000000000,   -0.0000212940,    0.0000000000,    0.0001562551,    0.0000000000,   -0.0001433253,    0.0000000000,    0.0013656594,    0.0000000000,   -0.0013656594,    0.0000000000,    0.0027100413,    0.0000000000,    0.0001130066,    0.0000000000,   -0.0001130066,    0.0000000000,    0.0002258416,    0.0000000000,   -0.0094728322,    0.0000000000,    0.0094728322,    0.0000000000,   -0.0263746960,    0.0000000000,    0.0011803431,    0.0000000000,    0.0019900167,    0.0000000000,    0.0007449005,    0.0000000000,    0.0548969125,    0.0000000000,   -0.0548969125,    0.0000000000,   -0.0819528913,    0.0000000000,   -0.0019900167,    0.0000000000,   -0.0011803431,    0.0000000000,    0.0007449005,    0.0000000000,    0.0014725346,    0.0000000000,   -0.0014725346,    0.0000000000,   -0.0016631597,    0.0000000000,    0.0000368624,    0.0000000000,   -0.0004043684,    0.0000000000,   -0.0000631840,    0.0000000000,    0.0038521488,    0.0000000000,   -0.0038521488,    0.0000000000,   -0.2171222445,    0.0000000000,    0.0004043684,    0.0000000000,   -0.0000368624,    0.0000000000,   -0.0000631840,    0.0000000000,    0.0004281256,    0.0000000000,   -0.0004281256,    0.0000000000,    0.0022930449,    0.0000000000 ]
  - [    0.0015711309,   -0.0000000000,   -0.0006769477,   -0.0000000000,   -0.0030603828,   -0.0000000000,   -0.0011387997,   -0.0000000000,   -0.0011053449,   -0.0000000000,    0.0008004682,   -0.0000000000,   -0.0050036947,   -0.0000000000,   -0.0066964927,   -0.0000000000,   -0.0013656594,   -0.0000000000,    0.0001349354,   -0.0000000000,    0.0000640943,   -0.0000000000,   -0.0000212940,   -0.0000000000,    0.0575947404,   -0.0000000000,    0.0537519177,    0.0000000000,   -0.0036800608,    0.0000000000,   -0.0007332741,    0.0000000000,   -0.0000640943,    0.0000000000,    0.0001562551,    0.0000000000,   -0.0267589989,    0.0000000000,   -0.0190470877,    0.0000000000,   -0.0089393981,    0.0000000000,    0.0001119210,    0.0000000000,   -0.0002610354,    0.0000000000,   -0.0009452201,    0.0000000000,    0.0028562760,    0.0000000000,   -0.0000289470,    0.0000000000,    0.0025946869,    0.0000000000,   -0.0020717907,    0.0000000000,    0.0004769945,    0.0000000000,    0.0006235413,    0.0000000000,   -0.0861083142,    0.0000000000,   -0.0838472666,    0.0000000000,    0.0551978555,    0.0000000000,    0.0013928897,    0.0000000000,   -0.0009672295,    0.0000000000,    0.0002426165,    0.0000000000,    0.0000039838,    0.0000000000,    0.0001703627,    0.0000000000,   -0.0013430584,    0.0000000000,    0.0002349289,    0.0000000000,   -0.0005895083,    0.0000000000,    0.0000676315,    0.0000000000,   -0.0211592268,    0.0000000000,   -0.0175708172,    0.0000000000,    0.0039749740,    0.0000000000,    0.0012851285,    0.0000000000,    0.0006843177,    0.0000000000,    0.0000570524,    0.0000000000 ]
  - [   -0.0006769477,   -0.0000000000,    0.0015711309,   -0.0000000000,   -0.0030603828,   -0.0000000000,   -0.0011053449,   -0.0000000000,   -0.0011387997,   -0.0000000000,    0.0008004682,   -0.0000000000,   -0.0066964927,   -0.0000000000,   -0.0050036947,   -0.0000000000,   -0.0013656594,   -0.0000000000,   -0.0000640943,   -0.0000000000,   -0.0007332741,   -0.0000000000,    0.0001562551,   -0.0000000000,    0.0537519177,   -0.0000000000,    0.0575947404,   -0.0000000000,   -0.0036800608,    0.0000000000,    0.0000640943,    0.0000000000,    0.0001349354,    0.0000000000,   -0.0000212940,    0.0000000000,   -0.0190470877,    0.0000000000,   -0.0267589989,    0.0000000000,   -0.0089393981,    0.0000000000,   -0.0002610354,    0.0000000000,    0.0001119210,    0.0000000000,   -0.0009452201,    0.0000000000,   -0.0000289470,    0.0000000000,    0.0028562760,    0.0000000000,    0.0025946869,    0.0000000000,   -0.0009672295,    0.0000000000,    0.0013928897,    0.0000000000,    0.0002426165,    0.0000000000,   -0.0838472666,    0.0000000000,   -0.0861083142,    0.0000000000,    0.0551978555,    0.0000000000,    0.0004769945,    0.0000000000,   -0.0020717907,    0.0000000000,    0.0006235413,    0.0000000000,    0.0001703627,    0.0000000000,    0.0000039838,    0.0000000000,   -0.0013430584,    0.0000000000,    0.0006843177,    0.0000000000,    0.0012851285,    0.0000000000,    0.0000570524,    0.0000000000,   -0.0175708172,    0.0000000000,   -0.0211592268,    0.0000000000,    0.0039749740,    0.0000000000,   -0.0005895083,    0.0000000000,    0.0002349289,    0.0000000000,    0.0000676315,    0.0000000000 ]
  - [   -0.0049647235,   -0.0000000000,   -0.0049647235,   -0.0000000000,   -0.0112518892,   -0.0000000000,    0.0002757751,   -0.0000000000,    0.0002757751,   -0.0000000000,    0.0000025742,   -0.0000000000,    0.0013656594,   -0.0000000000,    0.0013656594,   -0.0000000000,    0.0027100413,   -0.0000000000,   -0.0000212940,   -0.0000000000,   -0.0001562551,   -0.0000000000,   -0.0001433253,   -0.0000000000,   -0.0036800608,   -0.0000000000,   -0.0036800608,   -0.0000000000,    0.1135006629,   -0.0000000000,   -0.0001562551,    0.0000000000,   -0.0000212940,    0.0000000000,   -0.0001433253,    0.0000000000,   -0.0094728322,    0.0000000000,   -0.0094728322,    0.0000000000,   -0.0263746960,    0.0000000000,    0.0001130066,    0.0000000000,    0.0001130066,    0.0000000000,    0.0002258416,    0.0000000000,    0.0014725346,    0.0000000000,    0.0014725346,    0.0000000000,   -0.0016631597,    0.0000000000,   -0.0019900167,    0.0000000000,    0.0011803431,    0.0000000000,    0.0007449005,    0.0000000000,    0.0548969125,    0.0000000000,    0.0548969125,    0.0000000000,   -0.0819528913,    0.0000000000,    0.0011803431,    0.0000000000,   -0.0019900167,    0.0000000000,    0.0007449005,    0.0000000000,    0.0004281256,    0.0000000000,    0.0004281256,    0.0000000000,    0.0022930449,    0.0000000000,    0.0004043684,    0.0000000000,    0.0000368624,    0.0000000000,   -0.0000631840,    0.0000000000,    0.0038521488,    0.0000000000,    0.0038521488,    0.0000000000,   -0.2171222445,    0.0000000000,    0.0000368624,    0.0000000000,    0.0004043684,    0.0000000000,   -0.0000631840,    0.0000000000 ]
  - [   -0.0011387997,   -0.0000000000,    0.0011053449,   -0.0000000000,   -0.0008004682,   -0.0000000000,    0.0015711309,   -0.0000000000,    0.0006769477,   -0.0000000000,    0.0030603828,   -0.0000000000,    0.0001349354,   -0.0000000000,   -0.0000640943,   -0.0000000000,    0.0000212940,   -0.0000000000,   -0.0050036947,   -0.0000000000,    0.0066964927,   -0.0000000000,    0.0013656594,   -0.0000000000,   -0.0007332741,   -0.0000000000,    0.0000640943,   -0.0000000000,   -0.0001562551,   -0.0000000000,    0.0575947404,   -0.0000000000,   -0.0537519177,    0.0000000000,    0.0036800608,    0.0000000000,    0.0001119210,    0.0000000000,    0.0002610354,    0.0000000000,    0.0009452201,    0.0000000000,   -0.0267589989,    0.0000000000,    0.0190470877,    0.0000000000,    0.0089393981,    0.0000000000,   -0.0020717907,    0.0000000000,   -0.0004769945,    0.0000000000,   -0.0006235413,    0.0000000000,    0.0028562760,    0.0000000000,    0.0000289470,    0.0000000000,   -0.0025946869,    0.0000000000,    0.0013928897,    0.0000000000,    0.0009672295,    0.0000000000,   -0.0002426165,    0.0000000000,   -0.0861083142,    0.0000000000,    0.0838472666,    0.0000000000,   -0.0551978555,    0.0000000000,    0.0002349289,    0.0000000000,    0.0005895083,    0.0000000000,   -0.0000676315,    0.0000000000,    0.0000039838,    0.0000000000,   -0.0001703627,    0.0000000000,    0.0013430584,    0.0000000000,    0.0012851285,    0.0000000000,   -0.0006843177,    0.0000000000,   -0.0000570524,    0.0000000000,   -0.0211592268,    0.0000000000,    0.0175708172,    0.0000000000,   -0.0039749740,    0.0000000000 ]
  - [    0.0011053449,   -0.0000000000,   -0.0011387997,   -0.0000000000,    0.0008004682,   -0.0000000000,    0.0006769477,   -0.0000000000,    0.0015711309,   -0.0000000000,   -0.0030603828,   -0.0000000000,    0.0000640943,   -0.0000000000,   -0.0007332741,   -0.0000000000,    0.0001562551,   -0.0000000000,    0.0066964927,   -0.0000000000,   -0.0050036947,   -0.0000000000,   -0.0013656594,   -0.0000000000,   -0.0000640943,   -0.0000000000,    0.0001349354,   -0.0000000000,   -0.0000212940,   -0.0000000000,   -0.0537519177,   -0.0000000000,    0.0575947404,   -0.0000000000,   -0.0036800608,    0.0000000000,    0.0002610354,    0.0000000000,    0.0001119210,    0.0000000000,   -0.0009452201,    0.0000000000,    0.0190470877,    0.0000000000,   -0.0267589989,    0.0000000000,   -0.0089393981,    0.0000000000,    0.0009672295,    0.0000000000,    0.0013928897,    0.0000000000,    0.0002426165,    0.0000000000,    0.0000289470,    0.0000000000,    0.0028562760,    0.0000000000,    0.0025946869,    0.0000000000,   -0.0004769945,    0.0000000000,   -0.0020717907,    0.0000000000,    0.0006235413,    0.0000000000,    0.0838472666,    0.0000000000,   -0.0861083142,    0.0000000000,    0.0551978555,    0.0000000000,   -0.0006843177,    0.0000000000,    0.0012851285,    0.0000000000,    0.0000570524,    0.0000000000,   -0.0001703627,    0.0000000000,    0.0000039838,    0.0000000000,   -0.0013430584,    0.0000000000,    0.0005895083,    0.0000000000,    0.0002349289,    0.0000000000,    0.0000676315,    0.0000000000,    0.0175708172,    0.0000000000,   -0.0211592268,    0.0000000000,    0.0039749740,    0.0000000000 ]
  - [   -0.0002757751,   -0.0000000000,    0.0002757751,   -0.0000000000,    0.0000025742,   -0.0000000000,    0.0049647235,   -0.0000000000,   -0.0049647235,   -0.0000000000,   -0.0112518892,   -0.0000000000,    0.0000212940,   -0.0000000000,   -0.0001562551,   -0.0000000000,   -0.0001433253,   -0.0000000000,   -0.0013656594,   -0.0000000000,    0.0013656594,   -0.0000000000,    0.0027100413,   -0.0000000000,    0.0001562551,   -0.0000000000,   -0.0000212940,   -0.0000000000,   -0.0001433253,   -0.0000000000,    0.0036800608,   -0.0000000000,   -0.0036800608,   -0.0000000000,    0.1135006629,   -0.0000000000,   -0.0001130066,    0.0000000000,    0.0001130066,    0.0000000000,    0.0002258416,    0.0000000000,    0.0094728322,    0.0000000000,   -0.0094728322,    0.0000000000,   -0.0263746960,    0.0000000000,    0.0019900167,    0.0000000000,    0.0011803431,    0.0000000000,    0.0007449005,    0.0000000000,   -0.0014725346,    0.0000000000,    0.0014725346,    0.0000000000,   -0.0016631597,    0.0000000000,   -0.0011803431,    0.0000000000,   -0.0019900167,    0.0000000000,    0.0007449005,    0.0000000000,   -0.0548969125,    0.0000000000,    0.0548969125,    0.0000000000,   -0.0819528913,    0.0000000000,   -0.0004043684,    0.0000000000,    0.0000368624,    0.0000000000,   -0.0000631840,    0.0000000000,   -0.0004281256,    0.0000000000,    0.0004281256,    0.0000000000,    0.0022930449,    0.0000000000,   -0.0000368624,    0.0000000000,    0.0004043684,    0.0000000000,   -0.0000631840,    0.0000000000,   -0.0038521488,    0.0000000000,    0.0038521488,    0.0000000000,   -0.2171222445,    0.0000000000 ]