Start at Thu 26 Sep 11:29:53 BST 2024
Running the following command
mpirun -np 8 /home/software/qespresso/ph.x -inp urea.born.in

     Program PHONON v.7.3.1 starts on 26Sep2024 at 11:29:54 
        Git branch: master
        Last git commit: 7fd60c9bc9fe7a7d1fe6f1049f4afba0eab9aeef-dirty
        Last git commit date: Thu Feb 29 10:18:05 2024 +0000
        Last git commit subject: Merge branch 'master_qe_7.3.1' into 'master'

     This program is part of the open-source Quantum ESPRESSO suite
     for quantum simulation of materials; please cite
         "P. Giannozzi et al., J. Phys.:Condens. Matter 21 395502 (2009);
         "P. Giannozzi et al., J. Phys.:Condens. Matter 29 465901 (2017);
         "P. Giannozzi et al., J. Chem. Phys. 152 154105 (2020);
          URL http://www.quantum-espresso.org", 
     in publications or presentations arising from this work. More details at
     http://www.quantum-espresso.org/quote

     Parallel version (MPI), running on     8 processors

     MPI processes distributed on     1 nodes
     10040 MiB available memory on the printing compute node when the environment starts

     Reading input from urea.born.in

     Reading xml data from directory:

     ./pwscf.save/

     R & G space division:  proc/nbgrp/npool/nimage =       8
     Subspace diagonalization in iterative solution of the eigenvalue problem:
     a serial algorithm will be used

     file C.pbe-n-kjpaw_psl.1.0.0.UPF: wavefunction(s)  2S 2P renormalized
     file O.pbe-n-kjpaw_psl.0.1.UPF: wavefunction(s)  2P renormalized

     IMPORTANT: XC functional enforced from input :
     Exchange-correlation= PBE
                           (   1   4   3   4   0   0   0)
     Any further DFT definition will be discarded
     Please, verify this is what you really want


     Parallelization info
     --------------------
     sticks:   dense  smooth     PW     G-vecs:    dense   smooth      PW
     Min         827     393    109                42829    13982    2033
     Max         828     395    111                42832    13985    2034
     Sum        6621    3149    877               342641   111865   16265

     Using Slab Decomposition

     Reading collected, re-writing distributed wavefunctions in ./

     Number and degeneracy of irreps per q-point
       N         xq(1)         xq(2)         xq(3)   N irreps
       1   0.000000000   0.000000000   0.000000000      35
        1   1   1   1   1   1   1   1   1   1   1   1   1   1   1   1   1   1
   1   1   1   1   2   2   2   2   2   2   2   2   2   2   2   2   2

     Calculation of q =    0.0000000   0.0000000   0.0000000

     Born charges                                                               

     bravais-lattice index     =            0
     lattice parameter (alat)  =      10.5296  a.u.
     unit-cell volume          =     969.1764 (a.u.)^3
     number of atoms/cell      =           16
     number of atomic types    =            4
     kinetic-energy cut-off    =      90.0000  Ry
     charge density cut-off    =     760.0000  Ry
     convergence threshold     =      1.0E-14
     beta                      =       0.7000
     number of iterations used =            8
     Exchange-correlation= PBE
                           (   1   4   3   4   0   0   0)


     celldm(1)=   10.52955  celldm(2)=    0.00000  celldm(3)=    0.00000
     celldm(4)=    0.00000  celldm(5)=    0.00000  celldm(6)=    0.00000

     crystal axes: (cart. coord. in units of alat)
               a(1) = (  0.9955  0.0000  0.0000 )  
               a(2) = (  0.0000  0.9955  0.0000 )  
               a(3) = (  0.0000  0.0000  0.8377 )  

     reciprocal axes: (cart. coord. in units 2 pi/alat)
               b(1) = (  1.0045  0.0000  0.0000 )  
               b(2) = (  0.0000  1.0045  0.0000 )  
               b(3) = (  0.0000  0.0000  1.1938 )  


     Atoms inside the unit cell: 

     Cartesian axes

     site n.  atom      mass           positions (alat units)
        1  O      15.9990   tau(    1) = (    0.00000    0.49776    0.50339  )
        2  O      15.9990   tau(    2) = (    0.49776    0.00000    0.33429  )
        3  N      14.0065   tau(    3) = (    0.14619    0.64395    0.14901  )
        4  N      14.0065   tau(    4) = (    0.64395    0.84932    0.68867  )
        5  N      14.0065   tau(    5) = (    0.84932    0.35156    0.14901  )
        6  N      14.0065   tau(    6) = (    0.35156    0.14619    0.68867  )
        7  C      12.0106   tau(    7) = (    0.00000    0.49776    0.27457  )
        8  C      12.0106   tau(    8) = (    0.49776    0.00000    0.56311  )
        9  H       1.0075   tau(    9) = (    0.25984    0.75760    0.23677  )
       10  H       1.0075   tau(   10) = (    0.75760    0.73567    0.60091  )
       11  H       1.0075   tau(   11) = (    0.73567    0.23792    0.23677  )
       12  H       1.0075   tau(   12) = (    0.23792    0.25984    0.60091  )
       13  H       1.0075   tau(   13) = (    0.14414    0.64190    0.80387  )
       14  H       1.0075   tau(   14) = (    0.64190    0.85137    0.03381  )
       15  H       1.0075   tau(   15) = (    0.85137    0.35362    0.80387  )
       16  H       1.0075   tau(   16) = (    0.35362    0.14414    0.03381  )

     Computing dynamical matrix for 
                    q = (   0.0000000   0.0000000   0.0000000 )

      9 Sym.Ops. (with q -> -q+G )


     G cutoff = 2134.3902  (  42832 G-vectors)     FFT grid: ( 96, 96, 80)
     G cutoff = 1011.0270  (  13983 G-vectors)  smooth grid: ( 64, 64, 54)
     number of k points=    24
                       cart. coord. in units 2pi/alat
        k(    1) = (   0.0000000   0.0000000   0.0000000), wk =   0.0133333
        k(    2) = (   0.0000000   0.0000000   0.1989619), wk =   0.0266667
        k(    3) = (   0.0000000   0.0000000   0.3979237), wk =   0.0266667
        k(    4) = (   0.0000000   0.0000000  -0.5968856), wk =   0.0133333
        k(    5) = (   0.0000000   0.2009014   0.0000000), wk =   0.0533333
        k(    6) = (   0.0000000   0.2009014   0.1989619), wk =   0.1066667
        k(    7) = (   0.0000000   0.2009014   0.3979237), wk =   0.1066667
        k(    8) = (   0.0000000   0.2009014  -0.5968856), wk =   0.0533333
        k(    9) = (   0.0000000   0.4018028   0.0000000), wk =   0.0533333
        k(   10) = (   0.0000000   0.4018028   0.1989619), wk =   0.1066667
        k(   11) = (   0.0000000   0.4018028   0.3979237), wk =   0.1066667
        k(   12) = (   0.0000000   0.4018028  -0.5968856), wk =   0.0533333
        k(   13) = (   0.2009014   0.2009014   0.0000000), wk =   0.0533333
        k(   14) = (   0.2009014   0.2009014   0.1989619), wk =   0.1066667
        k(   15) = (   0.2009014   0.2009014   0.3979237), wk =   0.1066667
        k(   16) = (   0.2009014   0.2009014  -0.5968856), wk =   0.0533333
        k(   17) = (   0.2009014   0.4018028   0.0000000), wk =   0.1066667
        k(   18) = (   0.2009014   0.4018028   0.1989619), wk =   0.2133333
        k(   19) = (   0.2009014   0.4018028   0.3979237), wk =   0.2133333
        k(   20) = (   0.2009014   0.4018028  -0.5968856), wk =   0.1066667
        k(   21) = (   0.4018028   0.4018028   0.0000000), wk =   0.0533333
        k(   22) = (   0.4018028   0.4018028   0.1989619), wk =   0.1066667
        k(   23) = (   0.4018028   0.4018028   0.3979237), wk =   0.1066667
        k(   24) = (   0.4018028   0.4018028  -0.5968856), wk =   0.0533333

     PseudoPot. # 1 for N  read from file:
     /home/john/Data/PseudoPotentials/SSSP_1.3.0_Efficiency/N.pbe-n-radius_5.UPF
     MD5 check sum: 16739722b17309cd8fe442a2ace49922
     Pseudo is Ultrasoft + core correction, Zval =  5.0
     Generated using "atomic" code by A. Dal Corso  v.5.1
     Using radial grid of 1085 points,  4 beta functions with: 
                l(1) =   0
                l(2) =   0
                l(3) =   1
                l(4) =   1
     Q(r) pseudized with 0 coefficients 


     PseudoPot. # 2 for H  read from file:
     /home/john/Data/PseudoPotentials/SSSP_1.3.0_Efficiency/H.pbe-rrkjus_psl.1.0.0.UPF
     MD5 check sum: f52b6d4d1c606e5624b1dc7b2218f220
     Pseudo is Ultrasoft, Zval =  1.0
     Generated using "atomic" code by A. Dal Corso  v.5.1
     Using radial grid of  929 points,  2 beta functions with: 
                l(1) =   0
                l(2) =   0
     Q(r) pseudized with 0 coefficients 


     PseudoPot. # 3 for C  read from file:
     /home/john/Data/PseudoPotentials/SSSP_1.3.0_Efficiency/C.pbe-n-kjpaw_psl.1.0.0.UPF
     MD5 check sum: 5d2aebdfa2cae82b50a7e79e9516da0f
     Pseudo is Projector augmented-wave + core cor, Zval =  4.0
     Generated using "atomic" code by A. Dal Corso  v.5.1
     Shape of augmentation charge: PSQ
     Using radial grid of 1073 points,  4 beta functions with: 
                l(1) =   0
                l(2) =   0
                l(3) =   1
                l(4) =   1
     Q(r) pseudized with 0 coefficients 


     PseudoPot. # 4 for O  read from file:
     /home/john/Data/PseudoPotentials/SSSP_1.3.0_Efficiency/O.pbe-n-kjpaw_psl.0.1.UPF
     MD5 check sum: 0234752ac141de4415c5fc33072bef88
     Pseudo is Projector augmented-wave + core cor, Zval =  6.0
     Generated using "atomic" code by A. Dal Corso  v.5.0.99 svn rev. 10869
     Shape of augmentation charge: BESSEL
     Using radial grid of 1095 points,  4 beta functions with: 
                l(1) =   0
                l(2) =   0
                l(3) =   1
                l(4) =   1
     Q(r) pseudized with 0 coefficients 


     Mode symmetry, D_2d (-42m) point group:


     Electric field:
     Dielectric constant
     Born effective charges as d Force / d E


     Atomic displacements:
     There are   35 irreducible representations

     Representation     1      1 modes -  To be done

     Representation     2      1 modes -  To be done

     Representation     3      1 modes -  To be done

     Representation     4      1 modes -  To be done

     Representation     5      1 modes -  To be done

     Representation     6      1 modes -  To be done

     Representation     7      1 modes -  To be done

     Representation     8      1 modes -  To be done

     Representation     9      1 modes -  To be done

     Representation    10      1 modes -  To be done

     Representation    11      1 modes -  To be done

     Representation    12      1 modes -  To be done

     Representation    13      1 modes -  To be done

     Representation    14      1 modes -  To be done

     Representation    15      1 modes -  To be done

     Representation    16      1 modes -  To be done

     Representation    17      1 modes -  To be done

     Representation    18      1 modes -  To be done

     Representation    19      1 modes -  To be done

     Representation    20      1 modes -  To be done

     Representation    21      1 modes -  To be done

     Representation    22      1 modes -  To be done

     Representation    23      2 modes -  To be done

     Representation    24      2 modes -  To be done

     Representation    25      2 modes -  To be done

     Representation    26      2 modes -  To be done

     Representation    27      2 modes -  To be done

     Representation    28      2 modes -  To be done

     Representation    29      2 modes -  To be done

     Representation    30      2 modes -  To be done

     Representation    31      2 modes -  To be done

     Representation    32      2 modes -  To be done

     Representation    33      2 modes -  To be done

     Representation    34      2 modes -  To be done

     Representation    35      2 modes -  To be done


     PHONON       :   1m15.23s CPU   1m16.37s WALL


     Electric Fields Calculation

      iter #   1 total cpu time :   182.2 secs   av.it.:   7.5
      thresh= 1.000E-02 alpha_mix =  0.700 |ddv_scf|^2 =  2.501E-08

      iter #   2 total cpu time :   225.0 secs   av.it.:  16.0
      thresh= 1.581E-05 alpha_mix =  0.700 |ddv_scf|^2 =  2.349E-08

      iter #   3 total cpu time :   267.7 secs   av.it.:  15.5
      thresh= 1.533E-05 alpha_mix =  0.700 |ddv_scf|^2 =  1.559E-09

      iter #   4 total cpu time :   307.3 secs   av.it.:  14.9
      thresh= 3.948E-06 alpha_mix =  0.700 |ddv_scf|^2 =  1.926E-10

      iter #   5 total cpu time :   348.1 secs   av.it.:  15.6
      thresh= 1.388E-06 alpha_mix =  0.700 |ddv_scf|^2 =  4.991E-11

      iter #   6 total cpu time :   387.8 secs   av.it.:  15.2
      thresh= 7.064E-07 alpha_mix =  0.700 |ddv_scf|^2 =  1.396E-12

      iter #   7 total cpu time :   428.0 secs   av.it.:  15.3
      thresh= 1.181E-07 alpha_mix =  0.700 |ddv_scf|^2 =  7.526E-14

      iter #   8 total cpu time :   468.9 secs   av.it.:  15.3
      thresh= 2.743E-08 alpha_mix =  0.700 |ddv_scf|^2 =  2.726E-15

     End of electric fields calculation

          Dielectric constant in cartesian axis 

          (       2.279791829       0.000000000       0.000000000 )
          (       0.000000000       2.279791829       0.000000000 )
          (       0.000000000       0.000000000       2.665769596 )

          Effective charges (d Force / dE) in cartesian axis without acoustic sum rule applied (asr)

           atom    1  O     Mean Z*:       -1.50293
      Ex  (       -0.93454        0.13379        0.00000 )
      Ey  (        0.13379       -0.93454        0.00000 )
      Ez  (        0.00000        0.00000       -2.63972 )
           atom    2  O     Mean Z*:       -1.50293
      Ex  (       -0.93454       -0.13379        0.00000 )
      Ey  (       -0.13379       -0.93454        0.00000 )
      Ez  (        0.00000        0.00000       -2.63972 )
           atom    3  N     Mean Z*:       -1.08140
      Ex  (       -1.10321       -0.46182        0.25044 )
      Ey  (       -0.46182       -1.10321        0.25044 )
      Ez  (        0.26254        0.26254       -1.03779 )
           atom    4  N     Mean Z*:       -1.08140
      Ex  (       -1.10321        0.46182       -0.25044 )
      Ey  (        0.46182       -1.10321        0.25044 )
      Ez  (       -0.26254        0.26254       -1.03779 )
           atom    5  N     Mean Z*:       -1.08140
      Ex  (       -1.10321       -0.46182       -0.25044 )
      Ey  (       -0.46182       -1.10321       -0.25044 )
      Ez  (       -0.26254       -0.26254       -1.03779 )
           atom    6  N     Mean Z*:       -1.08140
      Ex  (       -1.10321        0.46182        0.25044 )
      Ey  (        0.46182       -1.10321       -0.25044 )
      Ez  (        0.26254       -0.26254       -1.03779 )
           atom    7  C     Mean Z*:        1.84776
      Ex  (        1.35793        1.07043        0.00000 )
      Ey  (        1.07043        1.35793        0.00000 )
      Ez  (        0.00000        0.00000        2.82744 )
           atom    8  C     Mean Z*:        1.84776
      Ex  (        1.35793       -1.07043        0.00000 )
      Ey  (       -1.07043        1.35793        0.00000 )
      Ez  (        0.00000        0.00000        2.82744 )
           atom    9  H     Mean Z*:        0.47008
      Ex  (        0.57763        0.27851        0.16527 )
      Ey  (        0.27851        0.57763        0.16527 )
      Ez  (        0.19263        0.19263        0.25499 )
           atom   10  H     Mean Z*:        0.47008
      Ex  (        0.57763       -0.27851       -0.16527 )
      Ey  (       -0.27851        0.57763        0.16527 )
      Ez  (       -0.19263        0.19263        0.25499 )
           atom   11  H     Mean Z*:        0.47008
      Ex  (        0.57763        0.27851       -0.16527 )
      Ey  (        0.27851        0.57763       -0.16527 )
      Ez  (       -0.19263       -0.19263        0.25499 )
           atom   12  H     Mean Z*:        0.47008
      Ex  (        0.57763       -0.27851        0.16527 )
      Ey  (       -0.27851        0.57763       -0.16527 )
      Ez  (        0.19263       -0.19263        0.25499 )
           atom   13  H     Mean Z*:        0.43982
      Ex  (        0.31467       -0.07986        0.03652 )
      Ey  (       -0.07986        0.31467        0.03652 )
      Ez  (        0.10197        0.10197        0.69011 )
           atom   14  H     Mean Z*:        0.43982
      Ex  (        0.31467        0.07986       -0.03652 )
      Ey  (        0.07986        0.31467        0.03652 )
      Ez  (       -0.10197        0.10197        0.69011 )
           atom   15  H     Mean Z*:        0.43982
      Ex  (        0.31467       -0.07986       -0.03652 )
      Ey  (       -0.07986        0.31467       -0.03652 )
      Ez  (       -0.10197       -0.10197        0.69011 )
           atom   16  H     Mean Z*:        0.43982
      Ex  (        0.31467        0.07986        0.03652 )
      Ey  (        0.07986        0.31467       -0.03652 )
      Ez  (        0.10197       -0.10197        0.69011 )

          Effective charges Sum: Mean:        0.00366
              0.00317       -0.00000        0.00000
              0.00000        0.00317        0.00000
             -0.00000       -0.00000        0.00465

          Effective charges (d Force / dE) in cartesian axis with asr applied: 
           atom    1  O     Mean Z*:       -1.50316
      E*x (       -0.93474        0.13379        0.00000 )
      E*y (        0.13379       -0.93474        0.00000 )
      E*z (       -0.00000       -0.00000       -2.64001 )
           atom    2  O     Mean Z*:       -1.50316
      E*x (       -0.93474       -0.13379        0.00000 )
      E*y (       -0.13379       -0.93474        0.00000 )
      E*z (       -0.00000       -0.00000       -2.64001 )
           atom    3  N     Mean Z*:       -1.08163
      E*x (       -1.10340       -0.46182        0.25044 )
      E*y (       -0.46182       -1.10340        0.25044 )
      E*z (        0.26254        0.26254       -1.03808 )
           atom    4  N     Mean Z*:       -1.08163
      E*x (       -1.10340        0.46182       -0.25044 )
      E*y (        0.46182       -1.10340        0.25044 )
      E*z (       -0.26254        0.26254       -1.03808 )
           atom    5  N     Mean Z*:       -1.08163
      E*x (       -1.10340       -0.46182       -0.25044 )
      E*y (       -0.46182       -1.10340       -0.25044 )
      E*z (       -0.26254       -0.26254       -1.03808 )
           atom    6  N     Mean Z*:       -1.08163
      E*x (       -1.10340        0.46182        0.25044 )
      E*y (        0.46182       -1.10340       -0.25044 )
      E*z (        0.26254       -0.26254       -1.03808 )
           atom    7  C     Mean Z*:        1.84753
      E*x (        1.35773        1.07043        0.00000 )
      E*y (        1.07043        1.35773        0.00000 )
      E*z (       -0.00000       -0.00000        2.82715 )
           atom    8  C     Mean Z*:        1.84753
      E*x (        1.35773       -1.07043        0.00000 )
      E*y (       -1.07043        1.35773        0.00000 )
      E*z (       -0.00000       -0.00000        2.82715 )
           atom    9  H     Mean Z*:        0.46985
      E*x (        0.57743        0.27851        0.16527 )
      E*y (        0.27851        0.57743        0.16527 )
      E*z (        0.19263        0.19263        0.25470 )
           atom   10  H     Mean Z*:        0.46985
      E*x (        0.57743       -0.27851       -0.16527 )
      E*y (       -0.27851        0.57743        0.16527 )
      E*z (       -0.19263        0.19263        0.25470 )
           atom   11  H     Mean Z*:        0.46985
      E*x (        0.57743        0.27851       -0.16527 )
      E*y (        0.27851        0.57743       -0.16527 )
      E*z (       -0.19263       -0.19263        0.25470 )
           atom   12  H     Mean Z*:        0.46985
      E*x (        0.57743       -0.27851        0.16527 )
      E*y (       -0.27851        0.57743       -0.16527 )
      E*z (        0.19263       -0.19263        0.25470 )
           atom   13  H     Mean Z*:        0.43959
      E*x (        0.31448       -0.07986        0.03652 )
      E*y (       -0.07986        0.31448        0.03652 )
      E*z (        0.10197        0.10197        0.68982 )
           atom   14  H     Mean Z*:        0.43959
      E*x (        0.31448        0.07986       -0.03652 )
      E*y (        0.07986        0.31448        0.03652 )
      E*z (       -0.10197        0.10197        0.68982 )
           atom   15  H     Mean Z*:        0.43959
      E*x (        0.31448       -0.07986       -0.03652 )
      E*y (       -0.07986        0.31448       -0.03652 )
      E*z (       -0.10197       -0.10197        0.68982 )
           atom   16  H     Mean Z*:        0.43959
      E*x (        0.31448        0.07986        0.03652 )
      E*y (        0.07986        0.31448       -0.03652 )
      E*z (        0.10197       -0.10197        0.68982 )

     PHONON       :   9m37.26s CPU   9m58.65s WALL

     INITIALIZATION: 
     phq_setup    :      0.22s CPU      0.23s WALL (       1 calls)
     phq_init     :     74.19s CPU     75.16s WALL (       1 calls)

     phq_init     :     74.19s CPU     75.16s WALL (       1 calls)
     set_drhoc    :      0.00s CPU      0.00s WALL (       1 calls)
     init_vloc    :      0.01s CPU      0.02s WALL (       1 calls)
     init_us_1    :      0.04s CPU      0.04s WALL (       1 calls)
     init_us_2    :      0.92s CPU      1.01s WALL (     384 calls)
     newd         :      0.13s CPU      0.14s WALL (       1 calls)
     dvanqq       :     37.26s CPU     37.37s WALL (       1 calls)
     drho         :     36.74s CPU     37.58s WALL (       1 calls)
     drhous       :     21.49s CPU     22.14s WALL (       1 calls)
     nldyntot     :      0.27s CPU      0.27s WALL (       1 calls)
     cmpt_qdipol  :      0.00s CPU      0.00s WALL (       1 calls)

     DIELECTRIC CONSTANT AND EFFECTIVE CHARGES:
     solve_e      :    377.83s CPU    392.50s WALL (       1 calls)
     dielec       :      0.03s CPU      0.09s WALL (       1 calls)
     zstar_eu     :    124.17s CPU    129.62s WALL (       1 calls)
     newdq        :      4.82s CPU      4.85s WALL (       8 calls)
     adddvscf     :      1.19s CPU      1.20s WALL (     504 calls)

     dvqpsi_us    :     19.06s CPU     20.20s WALL (    1152 calls)
                                        0.00s GPU  (    1152 calls)
     dvqpsi_us_on :      6.06s CPU      6.13s WALL (    1152 calls)

     add_vuspsi   :     15.47s CPU     15.62s WALL (   14559 calls)
     addusdbec    :      2.91s CPU      2.98s WALL (    1800 calls)


      General routines
     calbec       :     75.43s CPU     77.33s WALL (   59454 calls)
     fft          :      6.51s CPU      7.01s WALL (    1808 calls)
     ffts         :      0.88s CPU      0.93s WALL (    1300 calls)
     fftw         :    120.62s CPU    127.62s WALL (  653730 calls)
     davcio       :      2.42s CPU      5.16s WALL (   13124 calls)
     write_rec    :      0.01s CPU      0.04s WALL (       8 calls)

      Additional routines
     ch_psi       :    306.70s CPU    317.89s WALL (   14559 calls)
     last         :     59.20s CPU     60.03s WALL (   14559 calls)
     Hesh         :      5.95s CPU      6.01s WALL (   14559 calls)
     ch_psi_all_k :     53.14s CPU     53.93s WALL (   14559 calls)
                                        0.00s GPU  (   14559 calls)
     ch_psi_calbe :     17.67s CPU     17.94s WALL (   14559 calls)
                                        0.00s GPU  (   14559 calls)
     h_psi_bgrp   :    220.32s CPU    230.44s WALL (   14559 calls)
     h_psi        :    220.27s CPU    230.40s WALL (   14559 calls)
     h_psi:pot    :    214.92s CPU    224.99s WALL (   14559 calls)
     h_psi:calbec :     22.38s CPU     23.09s WALL (   14559 calls)
     s_psi_bgrp   :     33.54s CPU     33.89s WALL (   29838 calls)
     s_psi        :     28.18s CPU     28.49s WALL (   29838 calls)


     PHONON       :   9m37.26s CPU   9m58.65s WALL


   This run was terminated on:  11:39:53  26Sep2024            

=------------------------------------------------------------------------------=
   JOB DONE.
=------------------------------------------------------------------------------=
