          40 PROCESSORS WORKING

         
 *******************************************************************************
 *                                                                             *
 *                               CRYSTAL17                                     *
 *                      public : 1.0.2 - March 1st, 2018                       *
 *                       HTTP://WWW.CRYSTAL.UNITO.IT                           *
 *                                                                             *
 *                              MAIN AUTHORS                                   *
 *                                                                             *
 *  R. DOVESI(1,11), V.R. SAUNDERS(2), C. ROETTI(1,11), R. ORLANDO(1,11),      *
 *  C.M. ZICOVICH-WILSON(1,3), F. PASCALE(4), B. CIVALLERI(1,11),              *
 *  K. DOLL(5), N.M. HARRISON(2,6), I.J. BUSH(7), Ph. D'ARCO(8),               *
 *  M. LLUNELL(9), M. CAUSA'(10), Y. NOEL(8), L. MASCHIO(1,11), A. ERBA(1,11)  *
 *  M. RE'RAT(14), S. CASASSA(1,11)                                            *
 *                                                                             *
 *        CONTRIBUTIONS TO THE CODE HAVE ALSO BEEN GIVEN BY                    *
 *                                                                             *
 *  M. FERRABONE(1,11), M. DE LA PIERRE(1,11), M. FERRERO(1,11),               *
 *  J. BAIMA(1,11), E. ALBANESE(1,11), M.F. PEINTINGER(12), R. BAST(13),       *
 *  B. KIRTMAN(15), V. LACIVITA(1,11), R. DEMICHELIS(1,16)                     *
 *  G. BRANDEBURG(17), S. SALUSTRO(1,11), G. SANSONE(1,11)                     *
 *  M.T. RUGGIERO(18)                                                          *
 *                                                                             *
 * (1) THEORETICAL CHEMISTRY GROUP - UNIVERSITA' DI TORINO - TORINO (ITALY)    *
 * (2) COMPUTATIONAL SCIENCE & ENGINEERING DEPARTMENT - STFC DARESBURY (UK)    *
 * (3) UNIVERSIDAD AUTONOMA DEL ESTADO DE MORELOS - CUERNAVACA (MEXICO)        *
 * (4) UNIVERSITE' DE LORRAINE - NANCY (FRANCE)                                *
 * (5) UNIVERSITAET STUTTGART- STUTTGART (GERMANY)                             *
 * (6) IMPERIAL COLLEGE - LONDON (UK)                                          *
 * (7) OXFORD E-RESEARCH CENTRE - OXFORD (UK)                                  *
 * (8) UPMC - SORBONNE UNIVERSITES - PARIS (FRANCE)                            *
 * (9) UNIVERSIDAD DE BARCELONA - BARCELONA (SPAIN)                            *
 *(10) UNIVERSITA' DI NAPOLI "FEDERICO II" - NAPOLI (ITALY)                    *
 *(11) NIS - NANOSTRUCTURED INTERFACES AND SURFACES - TORINO (ITALY)           *
 *(12) MPI FUER CHEMISCHE ENERGIEKONVERSION - MUELHEIM AN DER RUHR (GERMANY)   *
 *(13) UNIVERSITY OF TROMSO - TROMSO (NORWAY)                                  *
 *(14) UNIVERSITE' DE PAU ET DES PAYS DE L'ADOUR - PAU (FRANCE)                *
 *(15) UNIVERSITY OF CALIFORNIA SANTA BARBARA - SANTA BARBARA (USA)            *
 *(16) CURTIN UNIVERSITY - PERTH (AUSTRALIA)                                   *
 *(17) UNIVERSITY COLLEGE LONDON - LONDON (UK)                                 *
 *(18) CAMBRIDGE UNIVERSITY - CAMBRIDGE (UK)                                   *
 *                                                                             *
 *******************************************************************************
 EEEEEEEEEE STARTING  DATE 12 12 2022 TIME 22:25:18.4
 #                                                                               

 GEOMETRY INPUT FROM EXTERNAL FILE (FORTRAN UNIT 34)
 3D - CRYSTAL 

 *******************************************************************************
 LATTICE PARAMETERS  (ANGSTROMS AND DEGREES) - PRIMITIVE CELL
       A          B          C        ALPHA      BETA     GAMMA        VOLUME
    6.03047   12.12062    5.81457    90.00000  90.00000  90.00000    425.003981
 INFORMATION **** CHKGRP **** SPGR WITH NO INVERSION

 NUMBER OF IRREDUCIBLE ATOMS IN THE CELL:   13

 CARTESIAN COORDINATES (ANGSTROM) - IRREDUCIBLE ATOMS AND SYMMETRY RELATED

 AT.IRR.  AT  AT.N.          X                   Y                   Z
     1     1     8   -1.615100419570E+00  1.029426138939E+00 -2.118399057074E+00
     1     2     8   -1.400132614992E+00 -1.029426138939E+00  7.888842058240E-01
     1     3     8    1.400132614992E+00  5.030883033006E+00  2.118399057074E+00
     1     4     8    1.615100419570E+00 -5.030883033006E+00 -7.888842058240E-01
     5     5     8    2.694270841002E+00  2.220724361625E+00 -1.316867836219E+00
     5     6     8    3.209621935600E-01 -2.220724361625E+00  1.590415426679E+00
     5     7     8   -3.209621935600E-01  3.839584810320E+00  1.316867836219E+00
     5     8     8   -2.694270841002E+00 -3.839584810320E+00 -1.590415426679E+00
     9     9     7   -2.131600091007E+00  1.698235400849E+00  1.137901893349E+00
     9    10     7   -8.836329435560E-01 -1.698235400849E+00 -1.769381369549E+00
     9    11     7    8.836329435560E-01  4.362073771096E+00 -1.137901893349E+00
     9    12     7    2.131600091007E+00 -4.362073771096E+00  1.769381369549E+00
    13    13     6   -2.656577273922E+00  1.706654307104E+00 -2.256323974642E+00
    13    14     6   -3.586557606400E-01 -1.706654307104E+00  6.509592882570E-01
    13    15     6    3.586557606400E-01  4.353654864841E+00  2.256323974642E+00
    13    16     6    2.656577273922E+00 -4.353654864841E+00 -6.509592882570E-01
    17    17     6    2.840206286315E+00  1.953420850700E+00  2.145958401551E+00
    17    18     6    1.750267482470E-01 -1.953420850700E+00 -7.613248613480E-01
    17    19     6   -1.750267482470E-01  4.106888321245E+00 -2.145958401551E+00
    17    20     6   -2.840206286315E+00 -4.106888321245E+00  7.613248613480E-01
    21    21     6    1.625013841387E+00  1.096635424533E+00  1.852415123161E+00
    21    22     6    1.390219193175E+00 -1.096635424533E+00 -1.054868139738E+00
    21    23     6   -1.390219193175E+00  4.963673747412E+00 -1.852415123161E+00
    21    24     6   -1.625013841387E+00 -4.963673747412E+00  1.054868139738E+00
    25    25     1   -1.771413239718E+00  7.375058341280E-01  1.200771701599E+00
    25    26     1   -1.243819794844E+00 -7.375058341280E-01 -1.706511561299E+00
    25    27     1    1.243819794844E+00  5.322803337818E+00 -1.200771701599E+00
    25    28     1    1.771413239718E+00 -5.322803337818E+00  1.706511561299E+00
    29    29     1   -1.361395793662E+00  2.374381371426E+00  1.268582615963E+00
    29    30     1   -1.653837240900E+00 -2.374381371426E+00 -1.638700646935E+00
    29    31     1    1.653837240900E+00  3.685927800519E+00 -1.268582615963E+00
    29    32     1    1.361395793662E+00 -3.685927800519E+00  1.638700646935E+00
    33    33     1   -2.519352144067E+00  1.836394852754E+00  1.785564333890E-01
    33    34     1   -4.958808904950E-01 -1.836394852754E+00 -2.728726829510E+00
    33    35     1    4.958808904950E-01  4.223914319191E+00 -1.785564333890E-01
    33    36     1    2.519352144067E+00 -4.223914319191E+00  2.728726829510E+00
    37    37     1    2.581981137723E+00  3.004484192096E+00  2.058935070343E+00
    37    38     1    4.332518968390E-01 -3.004484192096E+00 -8.483481925560E-01
    37    39     1   -4.332518968390E-01  3.055824979849E+00 -2.058935070343E+00
    37    40     1   -2.581981137723E+00 -3.055824979849E+00  8.483481925560E-01
    41    41     1    1.214943138415E+00  1.346565594316E+00  8.794462156250E-01
    41    42     1    1.800289896148E+00 -1.346565594316E+00 -2.027837047274E+00
    41    43     1   -1.800289896148E+00  4.713743577629E+00 -8.794462156250E-01
    41    44     1   -1.214943138415E+00 -4.713743577629E+00  2.027837047274E+00
    45    45     1    8.554213290660E-01  1.260963190493E+00  2.597445806413E+00
    45    46     1    2.159811705496E+00 -1.260963190493E+00 -3.098374564860E-01
    45    47     1   -2.159811705496E+00  4.799345981452E+00 -2.597445806413E+00
    45    48     1   -8.554213290660E-01 -4.799345981452E+00  3.098374564860E-01
    49    49     1    1.881542596915E+00  4.170219771400E-02  1.857574291971E+00
    49    50     1    1.133690437648E+00 -4.170219771400E-02 -1.049708970927E+00
    49    51     1   -1.133690437648E+00  6.018606974231E+00 -1.857574291971E+00
    49    52     1   -1.881542596915E+00 -6.018606974231E+00  1.049708970927E+00

 SPACE  GROUP  N.                     :   19
 NUMBER OF SYMMETRY OPERATORS         :    4
 *******************************************************************************
 LATTICE PARAMETERS (ANGSTROMS AND DEGREES) - BOHR = 0.5291772083 ANGSTROM
 PRIMITIVE CELL - CENTRING CODE 1/0 VOLUME=   425.003981 - DENSITY  1.392 g/cm^3
         A              B              C           ALPHA      BETA       GAMMA 
     6.03046607    12.12061834     5.81456653    90.000000  90.000000  90.000000
 *******************************************************************************
 ATOMS IN THE ASYMMETRIC UNIT   13 - ATOMS IN THE UNIT CELL:   52
     ATOM                 X/A                 Y/B                 Z/C    
 *******************************************************************************
      1 T   8 O    -2.678234818102E-01  8.493181698581E-02 -3.643262223718E-01
      2 F   8 O    -2.321765181901E-01 -8.493181698581E-02  1.356737776279E-01
      3 F   8 O     2.321765181901E-01  4.150681830138E-01  3.643262223718E-01
      4 F   8 O     2.678234818102E-01 -4.150681830138E-01 -1.356737776279E-01
      5 T   8 O     4.467765526115E-01  1.832187351021E-01 -2.264773875019E-01
      6 F   8 O     5.322344738884E-02 -1.832187351021E-01  2.735226124978E-01
      7 F   8 O    -5.322344738884E-02  3.167812648975E-01  2.264773875019E-01
      8 F   8 O    -4.467765526115E-01 -3.167812648975E-01 -2.735226124978E-01
      9 T   7 N    -3.534718654537E-01  1.401112841494E-01  1.956984907301E-01
     10 F   7 N    -1.465281345468E-01 -1.401112841494E-01 -3.043015092695E-01
     11 F   7 N     1.465281345468E-01  3.598887158502E-01 -1.956984907301E-01
     12 F   7 N     3.534718654537E-01 -3.598887158502E-01  3.043015092695E-01
     13 T   6 C    -4.405260295760E-01  1.408058779413E-01 -3.880468070372E-01
     14 F   6 C    -5.947397042437E-02 -1.408058779413E-01  1.119531929626E-01
     15 F   6 C     5.947397042437E-02  3.591941220583E-01  3.880468070372E-01
     16 F   6 C     4.405260295760E-01 -3.591941220583E-01 -1.119531929626E-01
     17 T   6 C     4.709762485621E-01  1.611651151183E-01  3.690659298555E-01
     18 F   6 C     2.902375143826E-02 -1.611651151183E-01 -1.309340701443E-01
     19 F   6 C    -2.902375143826E-02  3.388348848813E-01 -3.690659298555E-01
     20 F   6 C    -4.709762485621E-01 -3.388348848813E-01  1.309340701443E-01
     21 T   6 C     2.694673716362E-01  9.047685468002E-02  3.185818091412E-01
     22 F   6 C     2.305326283641E-01 -9.047685468002E-02 -1.814181908587E-01
     23 F   6 C    -2.305326283641E-01  4.095231453196E-01 -3.185818091412E-01
     24 F   6 C    -2.694673716362E-01 -4.095231453196E-01  1.814181908587E-01
     25 T   1 H    -2.937440024393E-01  6.084721201532E-02  2.065109576563E-01
     26 F   1 H    -2.062559975610E-01 -6.084721201532E-02 -2.934890423434E-01
     27 F   1 H     2.062559975610E-01  4.391527879844E-01 -2.065109576563E-01
     28 F   1 H     2.937440024393E-01 -4.391527879844E-01  2.934890423434E-01
     29 T   1 H    -2.257529978708E-01  1.958960594301E-01  2.181732052311E-01
     30 F   1 H    -2.742470021295E-01 -1.958960594301E-01 -2.818267947686E-01
     31 F   1 H     2.742470021295E-01  3.041039405695E-01 -2.181732052311E-01
     32 F   1 H     2.257529978708E-01 -3.041039405695E-01  2.818267947686E-01
     33 T   1 H    -4.177707187456E-01  1.515099973161E-01  3.070846856713E-02
     34 F   1 H    -8.222928125477E-02 -1.515099973161E-01 -4.692915314327E-01
     35 F   1 H     8.222928125477E-02  3.484900026835E-01 -3.070846856713E-02
     36 F   1 H     4.177707187456E-01 -3.484900026835E-01  4.692915314327E-01
     37 T   1 H     4.281561504747E-01  2.478820887557E-01  3.540994949851E-01
     38 F   1 H     7.184384952558E-02 -2.478820887557E-01 -1.459005050147E-01
     39 F   1 H    -7.184384952558E-02  2.521179112439E-01 -3.540994949851E-01
     40 F   1 H    -4.281561504747E-01 -2.521179112439E-01  1.459005050147E-01
     41 T   1 H     2.014675357575E-01  1.110971038036E-01  1.512488010452E-01
     42 F   1 H     2.985324642430E-01 -1.110971038036E-01 -3.487511989546E-01
     43 F   1 H    -2.985324642430E-01  3.889028961960E-01 -1.512488010452E-01
     44 F   1 H    -2.014675357575E-01 -3.889028961960E-01  3.487511989546E-01
     45 T   1 H     1.418499530984E-01  1.040345595180E-01  4.467135761347E-01
     46 F   1 H     3.581500469020E-01 -1.040345595180E-01 -5.328642386517E-02
     47 F   1 H    -3.581500469020E-01  3.959654404816E-01 -4.467135761347E-01
     48 F   1 H    -1.418499530984E-01 -3.959654404816E-01  5.328642386517E-02
     49 T   1 H     3.120061659164E-01  3.440599854791E-03  3.194690926191E-01
     50 F   1 H     1.879938340841E-01 -3.440599854791E-03 -1.805309073805E-01
     51 F   1 H    -1.879938340841E-01  4.965594001448E-01 -3.194690926191E-01
     52 F   1 H    -3.120061659164E-01 -4.965594001448E-01  1.805309073805E-01

 T = ATOM BELONGING TO THE ASYMMETRIC UNIT
 *******************************************************************************
 * GEOMETRY EDITING - INPUT COORDINATES ARE GIVEN IN ANGSTROM         
 *******************************************************************************

 GEOMETRY NOW FULLY CONSISTENT WITH THE GROUP

 FRQFRQFRQFRQFRQFRQFRQFRQFRQFRQFRQFRQFRQFRQFRQFRQFRQFRQFRQFRQFRQFRQFRQFRQFRQFRQ

                       FREQUENCY CALCULATION

 OPTIMIZATION PERFORMED BEFORE FREQUENCIES CALCULATION
 *******************************************************************************
 INFORMATION **** NEW DEFAULT **** FINALRUN 4 FOR GEOMETRY OPTIMIZATIONS
 INFORMATION **** NEW DEFAULT **** OPTGEOM OPTIMIZES BOTH ATOMIC COORDINATES AND CELL PARAMETERS
 INFORMATION **** NEW DEFAULT **** TOL. ON ATOMIC DISP TO REDEFINE REF. GEOMETRY: 0.8 Angs
 INFORMATION **** NEW DEFAULT **** N POINTS TO REDEFINE REF. GEOMETRY: N OF OPT DEGS OF FREEDOM
 INFORMATION **** NEW DEFAULT **** TOL. ON ENERGY TO REDEFINE REF. GEOMETRY: 10**-3*(5*N. ATOMS)
 INFORMATION **** FULLOPTG **** FULL OPTIMIZATION (ATOMS AND CELL PARAMETERS)

 IMPORTANT INFORMATION:
 THE COORDINATE SYSTEM ADOPTED IN THE OPTIMIZATION IS NOT IN
 GENERAL HOMOGENEOUS UNITS. FOR THIS REASON THE GRADIENT AND 
 HESSIAN MATRIX IN TERMS OF THIS SYSTEM ARE GIVEN WITHOUT
 UNITS. FOR MORE DETAILS SEE THE MANUAL.

 *******************************************************************************
 COMBINED CELL/ATOM OPTIMIZATION CONTROL

 INITIAL TRUST RADIUS         0.50000 MAXIMUM TRUST RADIUS               0.50000
 MAXIMUM GRADIENT COMPONENT   0.00005 MAXIMUM DISPLACEMENT COMPONENT     0.00018
 R.M.S. OF GRADIENT COMPONENT 0.00003 R.M.S. OF DISPLACEMENT COMPONENTS  0.00012
 THRESHOLD ON ENERGY CHANGE 0.100E-06 EXTRAPOLATING POLYNOMIAL ORDER           2
 MAXIMUM ALLOWED NUMBER OF STEPS   -1 SORTING OF ENERGY POINTS:               NO
 ANALYTICAL  GRADIENT                 HESSIAN UPDATING                      BFGS
 STEP SIZE NUMERICAL GRADIENT 0.00100
 INITIAL HESSIAN MATRIX: SCHLEGEL MODEL 2
 *******************************************************************************

 INFORMATION **** INPFREQ **** REMOVING ECKART CONDITIONS TO THE HESSIAN

 GCALCO - MAX INDICES DIRECT LATTICE VECTOR    18     9    19
 NO.OF VECTORS CREATED 6999 STARS 1062 RMAX   168.48794 BOHR

 GEOMETRY FOR WAVE FUNCTION - DIMENSIONALITY OF THE SYSTEM    3
 (NON PERIODIC DIRECTION: LATTICE PARAMETER FORMALLY SET TO 500)
 *******************************************************************************
 LATTICE PARAMETERS (ANGSTROMS AND DEGREES) - BOHR = 0.5291772083 ANGSTROM
 PRIMITIVE CELL - CENTRING CODE 1/0 VOLUME=   425.003981 - DENSITY  1.392 g/cm^3
         A              B              C           ALPHA      BETA       GAMMA 
     6.03046607    12.12061834     5.81456653    90.000000  90.000000  90.000000
 *******************************************************************************
 ATOMS IN THE ASYMMETRIC UNIT   13 - ATOMS IN THE UNIT CELL:   52
     ATOM                 X/A                 Y/B                 Z/C    
 *******************************************************************************
      1 T   8 O    -2.678234818102E-01  8.493181698581E-02 -3.643262223718E-01
      2 F   8 O    -2.321765181898E-01 -8.493181698581E-02  1.356737776282E-01
      3 F   8 O     2.321765181898E-01  4.150681830142E-01  3.643262223718E-01
      4 F   8 O     2.678234818102E-01 -4.150681830142E-01 -1.356737776282E-01
      5 T   8 O     4.467765526115E-01  1.832187351021E-01 -2.264773875019E-01
      6 F   8 O     5.322344738851E-02 -1.832187351021E-01  2.735226124981E-01
      7 F   8 O    -5.322344738851E-02  3.167812648979E-01  2.264773875019E-01
      8 F   8 O    -4.467765526115E-01 -3.167812648979E-01 -2.735226124981E-01
      9 T   7 N    -3.534718654537E-01  1.401112841494E-01  1.956984907301E-01
     10 F   7 N    -1.465281345463E-01 -1.401112841494E-01 -3.043015092699E-01
     11 F   7 N     1.465281345463E-01  3.598887158506E-01 -1.956984907301E-01
     12 F   7 N     3.534718654537E-01 -3.598887158506E-01  3.043015092699E-01
     13 T   6 C    -4.405260295760E-01  1.408058779413E-01 -3.880468070372E-01
     14 F   6 C    -5.947397042404E-02 -1.408058779413E-01  1.119531929628E-01
     15 F   6 C     5.947397042404E-02  3.591941220587E-01  3.880468070372E-01
     16 F   6 C     4.405260295760E-01 -3.591941220587E-01 -1.119531929628E-01
     17 T   6 C     4.709762485621E-01  1.611651151183E-01  3.690659298555E-01
     18 F   6 C     2.902375143793E-02 -1.611651151183E-01 -1.309340701445E-01
     19 F   6 C    -2.902375143793E-02  3.388348848817E-01 -3.690659298555E-01
     20 F   6 C    -4.709762485621E-01 -3.388348848817E-01  1.309340701445E-01
     21 T   6 C     2.694673716362E-01  9.047685468002E-02  3.185818091412E-01
     22 F   6 C     2.305326283638E-01 -9.047685468002E-02 -1.814181908588E-01
     23 F   6 C    -2.305326283638E-01  4.095231453200E-01 -3.185818091412E-01
     24 F   6 C    -2.694673716362E-01 -4.095231453200E-01  1.814181908588E-01
     25 T   1 H    -2.937440024393E-01  6.084721201532E-02  2.065109576563E-01
     26 F   1 H    -2.062559975607E-01 -6.084721201532E-02 -2.934890423437E-01
     27 F   1 H     2.062559975607E-01  4.391527879847E-01 -2.065109576563E-01
     28 F   1 H     2.937440024393E-01 -4.391527879847E-01  2.934890423437E-01
     29 T   1 H    -2.257529978708E-01  1.958960594301E-01  2.181732052311E-01
     30 F   1 H    -2.742470021292E-01 -1.958960594301E-01 -2.818267947689E-01
     31 F   1 H     2.742470021292E-01  3.041039405699E-01 -2.181732052311E-01
     32 F   1 H     2.257529978708E-01 -3.041039405699E-01  2.818267947689E-01
     33 T   1 H    -4.177707187456E-01  1.515099973161E-01  3.070846856713E-02
     34 F   1 H    -8.222928125444E-02 -1.515099973161E-01 -4.692915314329E-01
     35 F   1 H     8.222928125444E-02  3.484900026839E-01 -3.070846856713E-02
     36 F   1 H     4.177707187456E-01 -3.484900026839E-01  4.692915314329E-01
     37 T   1 H     4.281561504747E-01  2.478820887557E-01  3.540994949851E-01
     38 F   1 H     7.184384952525E-02 -2.478820887557E-01 -1.459005050149E-01
     39 F   1 H    -7.184384952525E-02  2.521179112443E-01 -3.540994949851E-01
     40 F   1 H    -4.281561504747E-01 -2.521179112443E-01  1.459005050149E-01
     41 T   1 H     2.014675357575E-01  1.110971038036E-01  1.512488010452E-01
     42 F   1 H     2.985324642425E-01 -1.110971038036E-01 -3.487511989548E-01
     43 F   1 H    -2.985324642425E-01  3.889028961964E-01 -1.512488010452E-01
     44 F   1 H    -2.014675357575E-01 -3.889028961964E-01  3.487511989548E-01
     45 T   1 H     1.418499530984E-01  1.040345595180E-01  4.467135761347E-01
     46 F   1 H     3.581500469016E-01 -1.040345595180E-01 -5.328642386534E-02
     47 F   1 H    -3.581500469016E-01  3.959654404820E-01 -4.467135761347E-01
     48 F   1 H    -1.418499530984E-01 -3.959654404820E-01  5.328642386534E-02
     49 T   1 H     3.120061659164E-01  3.440599854791E-03  3.194690926191E-01
     50 F   1 H     1.879938340836E-01 -3.440599854791E-03 -1.805309073809E-01
     51 F   1 H    -1.879938340836E-01  4.965594001452E-01 -3.194690926191E-01
     52 F   1 H    -3.120061659164E-01 -4.965594001452E-01  1.805309073809E-01

 T = ATOM BELONGING TO THE ASYMMETRIC UNIT

 ****    4 SYMMOPS - TRANSLATORS IN FRACTIONAL UNITS
 **** MATRICES AND TRANSLATORS IN THE CRYSTALLOGRAPHIC REFERENCE FRAME
   V INV                    ROTATION MATRICES                   TRANSLATORS
   1   1  1.00  0.00  0.00  0.00  1.00  0.00  0.00  0.00  1.00  0.00  0.00  0.00
   2   2 -1.00  0.00  0.00  0.00 -1.00  0.00  0.00  0.00  1.00  0.50  0.00  0.50
   3   3  1.00  0.00  0.00  0.00 -1.00  0.00  0.00  0.00 -1.00  0.50  0.50  0.00
   4   4 -1.00  0.00  0.00  0.00  1.00  0.00  0.00  0.00 -1.00  0.00  0.50  0.50

 DIRECT LATTICE VECTORS CARTESIAN COMPONENTS (ANGSTROM)
          X                    Y                    Z
   0.603046606912E+01   0.000000000000E+00   0.000000000000E+00
   0.000000000000E+00   0.121206183439E+02   0.000000000000E+00
   0.000000000000E+00   0.000000000000E+00   0.581456652580E+01


 CARTESIAN COORDINATES - PRIMITIVE CELL
 *******************************************************************************
 *      ATOM          X(ANGSTROM)         Y(ANGSTROM)         Z(ANGSTROM)
 *******************************************************************************
    1     8 O    -1.615100419570E+00  1.029426138939E+00 -2.118399057074E+00
    2     8 O    -1.400132614990E+00 -1.029426138939E+00  7.888842058260E-01
    3     8 O     1.400132614990E+00  5.030883033011E+00  2.118399057074E+00
    4     8 O     1.615100419570E+00 -5.030883033011E+00 -7.888842058260E-01
    5     8 O     2.694270841002E+00  2.220724361625E+00 -1.316867836219E+00
    6     8 O     3.209621935580E-01 -2.220724361625E+00  1.590415426681E+00
    7     8 O    -3.209621935580E-01  3.839584810325E+00  1.316867836219E+00
    8     8 O    -2.694270841002E+00 -3.839584810325E+00 -1.590415426681E+00
    9     7 N    -2.131600091007E+00  1.698235400849E+00  1.137901893349E+00
   10     7 N    -8.836329435530E-01 -1.698235400849E+00 -1.769381369551E+00
   11     7 N     8.836329435530E-01  4.362073771101E+00 -1.137901893349E+00
   12     7 N     2.131600091007E+00 -4.362073771101E+00  1.769381369551E+00
   13     6 C    -2.656577273922E+00  1.706654307104E+00 -2.256323974642E+00
   14     6 C    -3.586557606380E-01 -1.706654307104E+00  6.509592882580E-01
   15     6 C     3.586557606380E-01  4.353654864846E+00  2.256323974642E+00
   16     6 C     2.656577273922E+00 -4.353654864846E+00 -6.509592882580E-01
   17     6 C     2.840206286315E+00  1.953420850700E+00  2.145958401551E+00
   18     6 C     1.750267482450E-01 -1.953420850700E+00 -7.613248613490E-01
   19     6 C    -1.750267482450E-01  4.106888321250E+00 -2.145958401551E+00
   20     6 C    -2.840206286315E+00 -4.106888321250E+00  7.613248613490E-01
   21     6 C     1.625013841387E+00  1.096635424533E+00  1.852415123161E+00
   22     6 C     1.390219193173E+00 -1.096635424533E+00 -1.054868139739E+00
   23     6 C    -1.390219193173E+00  4.963673747417E+00 -1.852415123161E+00
   24     6 C    -1.625013841387E+00 -4.963673747417E+00  1.054868139739E+00
   25     1 H    -1.771413239718E+00  7.375058341280E-01  1.200771701599E+00
   26     1 H    -1.243819794842E+00 -7.375058341280E-01 -1.706511561301E+00
   27     1 H     1.243819794842E+00  5.322803337822E+00 -1.200771701599E+00
   28     1 H     1.771413239718E+00 -5.322803337822E+00  1.706511561301E+00
   29     1 H    -1.361395793662E+00  2.374381371426E+00  1.268582615963E+00
   30     1 H    -1.653837240898E+00 -2.374381371426E+00 -1.638700646937E+00
   31     1 H     1.653837240898E+00  3.685927800524E+00 -1.268582615963E+00
   32     1 H     1.361395793662E+00 -3.685927800524E+00  1.638700646937E+00
   33     1 H    -2.519352144067E+00  1.836394852754E+00  1.785564333890E-01
   34     1 H    -4.958808904930E-01 -1.836394852754E+00 -2.728726829511E+00
   35     1 H     4.958808904930E-01  4.223914319196E+00 -1.785564333890E-01
   36     1 H     2.519352144067E+00 -4.223914319196E+00  2.728726829511E+00
   37     1 H     2.581981137723E+00  3.004484192096E+00  2.058935070343E+00
   38     1 H     4.332518968370E-01 -3.004484192096E+00 -8.483481925570E-01
   39     1 H    -4.332518968370E-01  3.055824979854E+00 -2.058935070343E+00
   40     1 H    -2.581981137723E+00 -3.055824979854E+00  8.483481925570E-01
   41     1 H     1.214943138415E+00  1.346565594316E+00  8.794462156250E-01
   42     1 H     1.800289896145E+00 -1.346565594316E+00 -2.027837047275E+00
   43     1 H    -1.800289896145E+00  4.713743577634E+00 -8.794462156250E-01
   44     1 H    -1.214943138415E+00 -4.713743577634E+00  2.027837047275E+00
   45     1 H     8.554213290660E-01  1.260963190493E+00  2.597445806413E+00
   46     1 H     2.159811705494E+00 -1.260963190493E+00 -3.098374564870E-01
   47     1 H    -2.159811705494E+00  4.799345981457E+00 -2.597445806413E+00
   48     1 H    -8.554213290660E-01 -4.799345981457E+00  3.098374564870E-01
   49     1 H     1.881542596915E+00  4.170219771400E-02  1.857574291971E+00
   50     1 H     1.133690437645E+00 -4.170219771400E-02 -1.049708970929E+00
   51     1 H    -1.133690437645E+00  6.018606974236E+00 -1.857574291971E+00
   52     1 H    -1.881542596915E+00 -6.018606974236E+00  1.049708970929E+00

 *******************************************************************************
 STARTING BASIS SET HANDLING 
 *******************************************************************************

 Loading internal basis set: MTZVP               

 Please cite in your publication:
 Balanced basis sets of split valence, triple zeta valence and quadruple zeta va
 lence quality for H to Rn: Design an assessment of accuracy. F. Weigend and R. 
 Ahlrichs; Phys. Chem. Chem. Phys. 7, 3297 (2005).                              
                    
 S. Grimme, J. G. Brandenburg, C. Bannwarth, and A. Hansen, J. Chem. Phys., 143,
  054107 (2015).                                                                
                                                                                
                    

 *******************************************************************************
 LOCAL ATOMIC FUNCTIONS BASIS SET
 *******************************************************************************
   ATOM   X(AU)   Y(AU)   Z(AU)  N. TYPE  EXPONENT  S COEF   P COEF   D/F/G COEF
 *******************************************************************************
   1 O   -3.052   1.945  -4.003
                                  1 S  
                                         2.703E+04 2.173E-04 0.000E+00 0.000E+00
                                         4.052E+03 1.684E-03 0.000E+00 0.000E+00
                                         9.223E+02 8.740E-03 0.000E+00 0.000E+00
                                         2.612E+02 3.524E-02 0.000E+00 0.000E+00
                                         8.535E+01 1.115E-01 0.000E+00 0.000E+00
                                         3.104E+01 2.559E-01 0.000E+00 0.000E+00
                                  2 S  
                                         1.226E+01 3.977E-01 0.000E+00 0.000E+00
                                         4.999E+00 2.463E-01 0.000E+00 0.000E+00
                                  3 S  
                                         1.170E+00 1.000E+00 0.000E+00 0.000E+00
                                  4 S  
                                         4.647E-01 1.000E+00 0.000E+00 0.000E+00
                                  5 S  
                                         1.850E-01 1.000E+00 0.000E+00 0.000E+00
                           6-     8 P  
                                         6.327E+01 0.000E+00 6.069E-03 0.000E+00
                                         1.463E+01 0.000E+00 4.191E-02 0.000E+00
                                         4.450E+00 0.000E+00 1.615E-01 0.000E+00
                                         1.528E+00 0.000E+00 3.571E-01 0.000E+00
                           9-    11 P  
                                         5.294E-01 0.000E+00 4.479E-01 0.000E+00
                          12-    14 P  
                                         1.748E-01 0.000E+00 2.445E-01 0.000E+00
                          15-    19 D  
                                         9.000E-01 0.000E+00 0.000E+00 1.000E+00
                          20-    24 D  
                                         1.500E-01 0.000E+00 0.000E+00 1.000E+00
   2 O   -2.646  -1.945   1.491
   3 O    2.646   9.507   4.003
   4 O    3.052  -9.507  -1.491
   5 O    5.091   4.197  -2.489
   6 O    0.607  -4.197   3.005
   7 O   -0.607   7.256   2.489
   8 O   -5.091  -7.256  -3.005
   9 N   -4.028   3.209   2.150
                                193 S  
                                         1.973E+04 2.189E-04 0.000E+00 0.000E+00
                                         2.958E+03 1.696E-03 0.000E+00 0.000E+00
                                         6.732E+02 8.795E-03 0.000E+00 0.000E+00
                                         1.907E+02 3.536E-02 0.000E+00 0.000E+00
                                         6.230E+01 1.110E-01 0.000E+00 0.000E+00
                                         2.265E+01 2.498E-01 0.000E+00 0.000E+00
                                194 S  
                                         8.979E+00 4.062E-01 0.000E+00 0.000E+00
                                         3.686E+00 2.434E-01 0.000E+00 0.000E+00
                                195 S  
                                         8.466E-01 1.000E+00 0.000E+00 0.000E+00
                                196 S  
                                         3.365E-01 1.000E+00 0.000E+00 0.000E+00
                                197 S  
                                         1.365E-01 1.000E+00 0.000E+00 0.000E+00
                         198-   200 P  
                                         4.920E+01 0.000E+00 5.555E-03 0.000E+00
                                         1.135E+01 0.000E+00 3.805E-02 0.000E+00
                                         3.427E+00 0.000E+00 1.495E-01 0.000E+00
                                         1.179E+00 0.000E+00 3.495E-01 0.000E+00
                         201-   203 P  
                                         4.164E-01 0.000E+00 4.584E-01 0.000E+00
                         204-   206 P  
                                         1.426E-01 0.000E+00 2.443E-01 0.000E+00
                         207-   211 D  
                                         8.000E-01 0.000E+00 0.000E+00 1.000E+00
  10 N   -1.670  -3.209  -3.344
  11 N    1.670   8.243  -2.150
  12 N    4.028  -8.243   3.344
  13 C   -5.020   3.225  -4.264
                                269 S  
                                         1.358E+04 2.225E-04 0.000E+00 0.000E+00
                                         2.035E+03 1.723E-03 0.000E+00 0.000E+00
                                         4.632E+02 8.926E-03 0.000E+00 0.000E+00
                                         1.312E+02 3.573E-02 0.000E+00 0.000E+00
                                         4.285E+01 1.108E-01 0.000E+00 0.000E+00
                                         1.558E+01 2.430E-01 0.000E+00 0.000E+00
                                270 S  
                                         6.207E+00 4.144E-01 0.000E+00 0.000E+00
                                         2.576E+00 2.374E-01 0.000E+00 0.000E+00
                                271 S  
                                         5.770E-01 1.000E+00 0.000E+00 0.000E+00
                                272 S  
                                         2.297E-01 1.000E+00 0.000E+00 0.000E+00
                                273 S  
                                         9.516E-02 1.000E+00 0.000E+00 0.000E+00
                         274-   276 P  
                                         3.470E+01 0.000E+00 5.333E-03 0.000E+00
                                         7.958E+00 0.000E+00 3.586E-02 0.000E+00
                                         2.378E+00 0.000E+00 1.422E-01 0.000E+00
                                         8.143E-01 0.000E+00 3.427E-01 0.000E+00
                         277-   279 P  
                                         2.889E-01 0.000E+00 4.645E-01 0.000E+00
                         280-   282 P  
                                         1.006E-01 0.000E+00 2.496E-01 0.000E+00
                         283-   287 D  
                                         8.000E-01 0.000E+00 0.000E+00 1.000E+00
  14 C   -0.678  -3.225   1.230
  15 C    0.678   8.227   4.264
  16 C    5.020  -8.227  -1.230
  17 C    5.367   3.691   4.055
  18 C    0.331  -3.691  -1.439
  19 C   -0.331   7.761  -4.055
  20 C   -5.367  -7.761   1.439
  21 C    3.071   2.072   3.501
  22 C    2.627  -2.072  -1.993
  23 C   -2.627   9.380  -3.501
  24 C   -3.071  -9.380   1.993
  25 H   -3.347   1.394   2.269
                                497 S  
                                         3.406E+01 6.025E-03 0.000E+00 0.000E+00
                                         5.124E+00 4.502E-02 0.000E+00 0.000E+00
                                         1.165E+00 2.019E-01 0.000E+00 0.000E+00
                                498 S  
                                         3.272E-01 1.000E+00 0.000E+00 0.000E+00
                                499 S  
                                         1.031E-01 1.000E+00 0.000E+00 0.000E+00
  26 H   -2.350  -1.394  -3.225
  27 H    2.350  10.059  -2.269
  28 H    3.347 -10.059   3.225
  29 H   -2.573   4.487   2.397
  30 H   -3.125  -4.487  -3.097
  31 H    3.125   6.965  -2.397
  32 H    2.573  -6.965   3.097
  33 H   -4.761   3.470   0.337
  34 H   -0.937  -3.470  -5.157
  35 H    0.937   7.982  -0.337
  36 H    4.761  -7.982   5.157
  37 H    4.879   5.678   3.891
  38 H    0.819  -5.678  -1.603
  39 H   -0.819   5.775  -3.891
  40 H   -4.879  -5.775   1.603
  41 H    2.296   2.545   1.662
  42 H    3.402  -2.545  -3.832
  43 H   -3.402   8.908  -1.662
  44 H   -2.296  -8.908   3.832
  45 H    1.617   2.383   4.908
  46 H    4.081  -2.383  -0.586
  47 H   -4.081   9.069  -4.908
  48 H   -1.617  -9.069   0.586
  49 H    3.556   0.079   3.510
  50 H    2.142  -0.079  -1.984
  51 H   -2.142  11.374  -3.510
  52 H   -3.556 -11.374   1.984

 *******************************************************************************
 FINISHED BASIS SET HANDLING 
 *******************************************************************************

 INFORMATION **** SET_MPP **** PCRYSTAL CALCULATION
 INFORMATION **** READM2 **** NEW DEFAULT: FOCK/KS MATRIX MIXING SET TO 30 %
 INFORMATION **** READM2 **** NEW DEFAULT: FULL DIRECT SCF MODE
 INFORMATION **** READM2 **** NEW DEFAULT: COULOMB BIPOLAR BUFFER SET TO 32 Mb
 INFORMATION **** READM2 **** NEW DEFAULT: EXCHANGE BIPOLAR BUFFER SET TO 32 Mb
 INFORMATION **** TOLINTEG **** COULOMB AND EXCHANGE SERIES TOLERANCES MODIFIED

 *******************************************************************************
 NEW DEFAULT: DFT INTEGRATION GRID INCREASED TO XLGRID
 NEW DEFAULT: DIIS ACCELERATOR ACTIVE
 USE KEYWORD NODIIS TO TURN IT OFF
 *******************************************************************************

 INFORMATION **** RDDFTP **** B97-3c calculation
 INFORMATION **** RDDFTP **** B97 reparametrized GGA functional combined with D3 and SRB

PLEASE CITE:
(1) B97-3c Reference
 J. G. Brandenburg, A. Hansen, C. Bannwarth, S. Grimme, J. Chem. Phys. tba
(2) DFT-D3 Reference
 S. Grimme, J. Antony, S. Ehrlich,
 and H. Krieg, J. Chem. Phys. 132, 154104 (2010)


 WARNING **** RDDFTP **** B97-3c has to be combined with mTZVP basis set
 WARNING **** RDDFTP **** Note: Harmonic frequencies are used  unscaled
 WARNING **** RDDFTP **** as recommended in original publication
 INFORMATION **** RDDFTP **** MAX N. OF POINTS ALLOWED IN A BATCH FOR NUMERICAL INTEGRATION         200
 INFORMATION **** READM2 **** FULL DIRECT SCF (MONO AND BIEL INT) SELECTED
 INFORMATION **** EXCHSIZE **** EXCHANGE BIPOLAR BUFFER SIZE SET TO    15000000
 INFORMATION **** BIPOSIZE **** COULOMB BIPOLAR BUFFER SET TO    15000000
 INFORMATION **** MAXCYCLE **** MAX NUMBER OF SCF CYCLES SET TO         190
 *******************************************************************************
 N. OF ATOMS PER CELL        52  COULOMB OVERLAP TOL         (T1) 10**   -8
 NUMBER OF SHELLS           308  COULOMB PENETRATION TOL     (T2) 10**   -8
 NUMBER OF AO               580  EXCHANGE OVERLAP TOL        (T3) 10**   20
 N. OF ELECTRONS PER CELL   192  EXCHANGE PSEUDO OVP (F(G))  (T4) 10**   20
 CORE ELECTRONS PER CELL     48  EXCHANGE PSEUDO OVP (P(G))  (T5) 10**   20
 N. OF SYMMETRY OPERATORS     4  POLE ORDER IN MONO ZONE                  4
 *******************************************************************************
 TYPE OF CALCULATION :  RESTRICTED CLOSED SHELL
 KOHN-SHAM HAMILTONIAN

 (EXCHANGE)[CORRELATION] FUNCTIONAL:(B97-3c)[B97-3c]


 CAPPA:IS1  6;IS2  6;IS3  3; K PTS MONK NET  32; SYMMOPS:K SPACE   8;G SPACE   4

 *******************************************************************************
 MAX NUMBER OF SCF CYCLES     190  CONVERGENCE ON DELTAP        10**-16
 WEIGHT OF F(I) IN F(I+1)      40% CONVERGENCE ON ENERGY        10**-10
 SHRINK. FACT.(MONKH.)    6  6  3  NUMBER OF K POINTS IN THE IBZ     32
 SHRINKING FACTOR(GILAT NET)    6  NUMBER OF K POINTS(GILAT NET)     32
 *******************************************************************************
 *** K POINTS COORDINATES (OBLIQUE COORDINATES IN UNITS OF IS =  6)
   1-R(  0  0  0)   2-C(  1  0  0)   3-C(  2  0  0)   4-R(  3  0  0)
   5-C(  0  1  0)   6-C(  1  1  0)   7-C(  2  1  0)   8-C(  3  1  0)
   9-C(  0  2  0)  10-C(  1  2  0)  11-C(  2  2  0)  12-C(  3  2  0)
  13-R(  0  3  0)  14-C(  1  3  0)  15-C(  2  3  0)  16-R(  3  3  0)
  17-C(  0  0  1)  18-C(  1  0  1)  19-C(  2  0  1)  20-C(  3  0  1)
  21-C(  0  1  1)  22-C(  1  1  1)  23-C(  2  1  1)  24-C(  3  1  1)
  25-C(  0  2  1)  26-C(  1  2  1)  27-C(  2  2  1)  28-C(  3  2  1)
  29-C(  0  3  1)  30-C(  1  3  1)  31-C(  2  3  1)  32-C(  3  3  1)

 DIRECT LATTICE VECTORS COMPON. (A.U.)     RECIP. LATTICE VECTORS COMPON. (A.U.) 
        X            Y            Z              X            Y            Z
   11.3959293    0.0000000    0.0000000      0.5513535    0.0000000    0.0000000
    0.0000000   22.9046492    0.0000000      0.0000000    0.2743192    0.0000000
    0.0000000    0.0000000   10.9879383      0.0000000    0.0000000    0.5718257

 DISK SPACE FOR EIGENVECTORS (FTN 10)    20184000 REALS

 SYMMETRY ADAPTION OF THE BLOCH FUNCTIONS ENABLED
 TTTTTTTTTTTTTTTTTTTTTTTTTTTTTT gordsh1     TELAPSE        0.47 TCPU        0.16

 MATRIX SIZE: P(G)  767780, F(G)  384752, P(G) IRR   97913, F(G) IRR   97913
 MAX G-VECTOR INDEX FOR 1- AND 2-ELECTRON INTEGRALS  69

 TTTTTTTTTTTTTTTTTTTTTTTTTTTTTT INPUT       TELAPSE        1.02 TCPU        0.71

 NEIGHBORS OF THE NON-EQUIVALENT ATOMS

 N = NUMBER OF NEIGHBORS AT DISTANCE R
    ATOM  N     R/ANG      R/AU   NEIGHBORS (ATOM LABELS AND CELL INDICES)
   1 O    1     1.2499     2.3620   13 C    0 0 0
   1 O    1     1.8519     3.4996   26 H    0 0 0
   1 O    1     2.2414     4.2356    5 O   -1 0 0
   1 O    1     2.3466     4.4345   39 H    0 0 0
   1 O    1     2.3954     4.5267   17 C   -1 0-1
   1 O    1     2.5173     4.7570   25 H    0 0-1

   5 O    1     1.2684     2.3968   13 C    1 0 0
   5 O    1     1.7468     3.3009   33 H    1 0 0
   5 O    1     1.7977     3.3971   31 H    0 0 0
   5 O    1     2.2414     4.2356    1 O    1 0 0
   5 O    1     2.3714     4.4813   17 C    0 0-1
   5 O    1     2.5641     4.8454   37 H    0 0-1

   9 N    1     1.0280     1.9426   25 H    0 0 0
   9 N    1     1.0332     1.9524   29 H    0 0 0
   9 N    1     1.0439     1.9727   33 H    0 0 0
   9 N    1     1.4839     2.8042   17 C   -1 0 0
   9 N    1     2.0709     3.9135   37 H   -1 0 0
   9 N    1     2.4582     4.6454   21 C   -1 0 0

  13 C    1     1.2499     2.3620    1 O    0 0 0
  13 C    1     1.2684     2.3968    5 O   -1 0 0
  13 C    1     1.5298     2.8909   17 C   -1 0-1
  13 C    1     2.1353     4.0351   37 H   -1 0-1
  13 C    1     2.4422     4.6151   33 H    0 0 0
  13 C    1     2.4766     4.6802    9 N    0 0-1

  17 C    1     1.0858     2.0519   37 H    0 0 0
  17 C    1     1.4839     2.8042    9 N    1 0 0
  17 C    1     1.5156     2.8640   21 C    0 0 0
  17 C    1     1.5298     2.8909   13 C    1 0 1
  17 C    1     2.0717     3.9149   29 H    1 0 0
  17 C    1     2.0819     3.9343   33 H    1 0 0

  21 C    1     1.0837     2.0478   45 H    0 0 0
  21 C    1     1.0850     2.0504   41 H    0 0 0
  21 C    1     1.0857     2.0517   49 H    0 0 0
  21 C    1     1.5156     2.8640   17 C    0 0 0
  21 C    1     2.1444     4.0523   37 H    0 0 0
  21 C    1     2.4582     4.6454    9 N    1 0 0

  25 H    1     1.0280     1.9426    9 N    0 0 0
  25 H    1     1.6769     3.1688   33 H    0 0 0
  25 H    1     1.6888     3.1914   29 H    0 0 0
  25 H    1     1.8519     3.4996    2 O    0 0 0
  25 H    1     2.0940     3.9571   17 C   -1 0 0
  25 H    1     2.5173     4.7570    1 O    0 0 1

  29 H    1     1.0332     1.9524    9 N    0 0 0
  29 H    1     1.6788     3.1725   33 H    0 0 0
  29 H    1     1.6888     3.1914   25 H    0 0 0
  29 H    1     1.7977     3.3971    7 O    0 0 0
  29 H    1     2.0717     3.9149   17 C   -1 0 0
  29 H    1     2.3190     4.3822   37 H   -1 0 0

  33 H    1     1.0439     1.9727    9 N    0 0 0
  33 H    1     1.6769     3.1688   25 H    0 0 0
  33 H    1     1.6788     3.1725   29 H    0 0 0
  33 H    1     1.7468     3.3009    5 O   -1 0 0
  33 H    1     2.0819     3.9343   17 C   -1 0 0
  33 H    1     2.4007     4.5367   37 H   -1 0 0

  37 H    1     1.0858     2.0519   17 C    0 0 0
  37 H    1     2.0709     3.9135    9 N    1 0 0
  37 H    1     2.1353     4.0351   13 C    1 0 1
  37 H    1     2.1444     4.0523   21 C    0 0 0
  37 H    1     2.3190     4.3822   29 H    1 0 0
  37 H    1     2.3466     4.4345    3 O    0 0 0

  41 H    1     1.0850     2.0504   21 C    0 0 0
  41 H    1     1.7573     3.3208   45 H    0 0 0
  41 H    1     1.7617     3.3292   49 H    0 0 0
  41 H    1     2.1480     4.0591   17 C    0 0 0
  41 H    1     2.3781     4.4940   50 H    0 0 0
  41 H    1     2.4502     4.6302   33 H    1 0 0

  45 H    1     1.0837     2.0478   21 C    0 0 0
  45 H    1     1.7570     3.3202   49 H    0 0 0
  45 H    1     1.7573     3.3208   41 H    0 0 0
  45 H    1     2.1500     4.0630   17 C    0 0 0
  45 H    1     2.4947     4.7143   39 H    0 0 1
  45 H    1     2.5121     4.7473   37 H    0 0 0

  49 H    1     1.0857     2.0517   21 C    0 0 0
  49 H    1     1.7570     3.3202   45 H    0 0 0
  49 H    1     1.7617     3.3292   41 H    0 0 0
  49 H    1     2.1580     4.0780   17 C    0 0 0
  49 H    1     2.3781     4.4940   42 H    0 0 1
  49 H    1     2.5440     4.8075   46 H    0 0 0


 SYMMETRY ALLOWED ELASTIC DISTORTION 1
  0.5773503  0.0000000  0.0000000
  0.0000000  0.5773503  0.0000000
  0.0000000  0.0000000  0.5773503

 SYMMETRY ALLOWED ELASTIC DISTORTION 2
  0.8164966  0.0000000  0.0000000
  0.0000000 -0.4082483  0.0000000
  0.0000000  0.0000000 -0.4082483

 SYMMETRY ALLOWED ELASTIC DISTORTION 3
  0.0000000  0.0000000  0.0000000
  0.0000000  0.7071068  0.0000000
  0.0000000  0.0000000 -0.7071068

 SYMMETRY ALLOWED INTERNAL DEGREE(S) OF FREEDOM:  39
 TTTTTTTTTTTTTTTTTTTTTTTTTTTTTT SYMM        TELAPSE        1.11 TCPU        0.79
 TTTTTTTTTTTTTTTTTTTTTTTTTTTTTT INT_SCREEN  TELAPSE        1.11 TCPU        0.79

 *******************************************************************************
 *                             OPTIMIZATION STARTS                             *
 *******************************************************************************
 RECLASIFICATION OF INDICES FOR INTEGRAL CALC ACCORDING TO DIFFERENT CRITERIA:
           FIXDELTE                  FIXDELTX              FIXDELTN
          0.10000000               0.80000000                 42
 DEFAULT MAX NUM OF POINTS  100
 *******************************************************************************

 *******************************************************************************
 COORDINATE AND CELL OPTIMIZATION - POINT    1
 INFORMATION **** EXCBUF **** EXCH. BIPO BUFFER: WORDS USED =           0

 DFT PARAMETERS

     ATOM       ELECTRONS   NET CHARGE   R(ANGSTROM)
   1   8  O       8.0000      0.0000     0.74000000
   9   7  N       7.0000      0.0000     0.74000000
  13   6  C       6.0000      0.0000     0.77000000
  25   1  H       1.0000      0.0000     1.11000000

 SIZE OF GRID=     297224
 TTTTTTTTTTTTTTTTTTTTTTTTTTTTTT MAKE_GRID2  TELAPSE        4.02 TCPU        3.69
 BECKE WEIGHT FUNCTION
 RADSAFE =     2.00
 TOLERANCES - DENSITY:10**- 6; POTENTIAL:10**- 9; GRID WGT:10**-14

 RADIAL INTEGRATION  - INTERVALS (POINTS,UPPER LIMIT):            1( 75,  4.0*R)

 ANGULAR INTEGRATION - INTERVALS (ACCURACY LEVEL [N. POINTS] UPPER LIMIT):
  1(  4[  86]   0.2)  2(  8[ 194]   0.5)  3( 12[ 350]   0.9)  4( 16[ 974]   3.5)
  5( 12[ 350]9999.0)
 TTTTTTTTTTTTTTTTTTTTTTTTTTTTTT INT_CALC    TELAPSE        4.06 TCPU        3.73

 *******************************************************************************
 #                                                                               
 CRYSTAL - SCF - TYPE OF CALCULATION :  RESTRICTED CLOSED SHELL
 *******************************************************************************

 CAPPA:IS1  6;IS2  6;IS3  3; K PTS MONK NET  32; SYMMOPS:K SPACE   8;G SPACE   4

 TTTTTTTTTTTTTTTTTTTTTTTTTTTTTT SDIK        TELAPSE        4.35 TCPU        4.02

 AAAAAAAAAAAAAAAAAAAAAAAAAAAAAAAAAAAAAAAAAAAAAAAAAAAAAAAAAAAAAAAAAAAAAAAAAAAAAAA
         ATOMIC WAVEFUNCTION(S)


 NUCLEAR CHARGE  8.0  SYMMETRY SPECIES            S    P
 N. ELECTRONS    8.0  NUMBER OF PRIMITIVE GTOS   11    6
                      NUMBER OF CONTRACTED GTOS   5    3
                      NUMBER OF CLOSED SHELLS     2    0
                      OPEN SHELL OCCUPATION       0    4

  ZNUC SCFIT  TOTAL HF ENERGY   KINETIC ENERGY   VIRIAL THEOREM ACCURACY
   8.0  14   -7.480668581E+01  7.480673486E+01 -1.999999344E+00  2.8E-06

 NUCLEAR CHARGE  7.0  SYMMETRY SPECIES            S    P
 N. ELECTRONS    7.0  NUMBER OF PRIMITIVE GTOS   11    6
                      NUMBER OF CONTRACTED GTOS   5    3
                      NUMBER OF CLOSED SHELLS     2    0
                      OPEN SHELL OCCUPATION       0    3

  ZNUC SCFIT  TOTAL HF ENERGY   KINETIC ENERGY   VIRIAL THEOREM ACCURACY
   7.0  12   -5.439917538E+01  5.439920040E+01 -1.999999540E+00  2.9E-06

 NUCLEAR CHARGE  6.0  SYMMETRY SPECIES            S    P
 N. ELECTRONS    6.0  NUMBER OF PRIMITIVE GTOS   11    6
                      NUMBER OF CONTRACTED GTOS   5    3
                      NUMBER OF CLOSED SHELLS     2    0
                      OPEN SHELL OCCUPATION       0    2

  ZNUC SCFIT  TOTAL HF ENERGY   KINETIC ENERGY   VIRIAL THEOREM ACCURACY
   6.0  12   -3.768747480E+01  3.768746809E+01 -2.000000178E+00  3.0E-06

 NUCLEAR CHARGE  1.0  SYMMETRY SPECIES            S
 N. ELECTRONS    1.0  NUMBER OF PRIMITIVE GTOS    5
                      NUMBER OF CONTRACTED GTOS   3
                      NUMBER OF CLOSED SHELLS     0
                      OPEN SHELL OCCUPATION       1

  ZNUC SCFIT  TOTAL HF ENERGY   KINETIC ENERGY   VIRIAL THEOREM ACCURACY
   1.0   1   -4.998098322E-01  4.998098316E-01 -2.000000001E+00  1.7E-16

 AAAAAAAAAAAAAAAAAAAAAAAAAAAAAAAAAAAAAAAAAAAAAAAAAAAAAAAAAAAAAAAAAAAAAAAAAAAAAAA

 TTTTTTTTTTTTTTTTTTTTTTTTTTTTTT MOQGAD      TELAPSE        4.39 TCPU        4.05
 TTTTTTTTTTTTTTTTTTTTTTTTTTTTTT SHELLXN     TELAPSE       38.15 TCPU       37.73
 TTTTTTTTTTTTTTTTTTTTTTTTTTTTTT MONMO3      TELAPSE       48.82 TCPU       48.38
 NUMERICALLY INTEGRATED DENSITY    191.9998968322
 TTTTTTTTTTTTTTTTTTTTTTTTTTTTTT NUMDFT      TELAPSE       50.01 TCPU       49.56
 CYC   0 ETOT(AU) -1.298295581788E+03 DETOT -1.30E+03 tst  0.00E+00 PX  1.00E+00
 TTTTTTTTTTTTTTTTTTTTTTTTTTTTTT DIIS        TELAPSE       50.11 TCPU       49.66
 TTTTTTTTTTTTTTTTTTTTTTTTTTTTTT FDIK        TELAPSE       54.61 TCPU       53.90
 INSULATING STATE
 TOP OF VALENCE BANDS -    BAND     96; K   17; EIG -3.5720952E-01 AU
 TOP OF VALENCE BANDS -    BAND     96; K    1; EIG -3.5906972E-01 AU
 BOTTOM OF VIRTUAL BANDS - BAND     97; K   20; EIG -1.1941264E-01 AU
 INDIRECT ENERGY BAND GAP:   6.4708 eV
 BOTTOM OF VIRTUAL BANDS - BAND     97; K    1; EIG -1.1765489E-01 AU
 TTTTTTTTTTTTTTTTTTTTTTTTTTTTTT PDIG        TELAPSE       54.72 TCPU       54.01
 TTTTTTTTTTTTTTTTTTTTTTTTTTTTTT MOQGAD      TELAPSE       54.73 TCPU       54.02
 TTTTTTTTTTTTTTTTTTTTTTTTTTTTTT SHELLXN     TELAPSE       92.54 TCPU       91.74
 TTTTTTTTTTTTTTTTTTTTTTTTTTTTTT MONMO3      TELAPSE      104.05 TCPU      103.22
 NUMERICALLY INTEGRATED DENSITY    191.9999167131
 TTTTTTTTTTTTTTTTTTTTTTTTTTTTTT NUMDFT      TELAPSE      107.26 TCPU      106.42
 CYC   1 ETOT(AU) -1.293541832693E+03 DETOT  4.75E+00 tst  0.00E+00 PX  1.00E+00
 TTTTTTTTTTTTTTTTTTTTTTTTTTTTTT DIIS        TELAPSE      107.29 TCPU      106.46
 DIIS TEST: 0.56776E+01 AT SCF   CYCLE   1 - MIX   40 %
 TTTTTTTTTTTTTTTTTTTTTTTTTTTTTT FDIK        TELAPSE      109.00 TCPU      108.09
 INSULATING STATE
 TOP OF VALENCE BANDS -    BAND     96; K    1; EIG -1.7594784E-01 AU
 BOTTOM OF VIRTUAL BANDS - BAND     97; K    1; EIG -2.0946026E-02 AU
 DIRECT ENERGY BAND GAP:   4.2178 eV
 TTTTTTTTTTTTTTTTTTTTTTTTTTTTTT PDIG        TELAPSE      109.13 TCPU      108.23
 TTTTTTTTTTTTTTTTTTTTTTTTTTTTTT MOQGAD      TELAPSE      109.15 TCPU      108.24
 TTTTTTTTTTTTTTTTTTTTTTTTTTTTTT SHELLXN     TELAPSE      146.89 TCPU      145.87
 TTTTTTTTTTTTTTTTTTTTTTTTTTTTTT MONMO3      TELAPSE      158.54 TCPU      157.49
 NUMERICALLY INTEGRATED DENSITY    191.9998987913
 TTTTTTTTTTTTTTTTTTTTTTTTTTTTTT NUMDFT      TELAPSE      161.70 TCPU      160.65
 CYC   2 ETOT(AU) -1.294012565057E+03 DETOT -4.71E-01 tst  5.06E-03 PX  3.56E-01
 TTTTTTTTTTTTTTTTTTTTTTTTTTTTTT DIIS        TELAPSE      161.73 TCPU      160.68
 DIIS TEST: 0.25326E+01 AT SCF   CYCLE   2 - DIIS ACTIVE - HISTORY:     2 CYCLES
 TTTTTTTTTTTTTTTTTTTTTTTTTTTTTT FDIK        TELAPSE      163.33 TCPU      162.26
 INSULATING STATE
 TOP OF VALENCE BANDS -    BAND     96; K   17; EIG -1.9962946E-01 AU
 TOP OF VALENCE BANDS -    BAND     96; K    1; EIG -2.0150846E-01 AU
 BOTTOM OF VIRTUAL BANDS - BAND     97; K    1; EIG  3.4703795E-03 AU
 INDIRECT ENERGY BAND GAP:   5.5266 eV
 TTTTTTTTTTTTTTTTTTTTTTTTTTTTTT PDIG        TELAPSE      163.43 TCPU      162.36
 TTTTTTTTTTTTTTTTTTTTTTTTTTTTTT MOQGAD      TELAPSE      163.45 TCPU      162.38
 TTTTTTTTTTTTTTTTTTTTTTTTTTTTTT SHELLXN     TELAPSE      201.37 TCPU      200.17
 TTTTTTTTTTTTTTTTTTTTTTTTTTTTTT MONMO3      TELAPSE      212.88 TCPU      211.66
 NUMERICALLY INTEGRATED DENSITY    191.9999034861
 TTTTTTTTTTTTTTTTTTTTTTTTTTTTTT NUMDFT      TELAPSE      216.07 TCPU      214.84
 CYC   3 ETOT(AU) -1.294239217291E+03 DETOT -2.27E-01 tst  2.58E-03 PX  2.11E-01
 TTTTTTTTTTTTTTTTTTTTTTTTTTTTTT DIIS        TELAPSE      216.13 TCPU      214.90
 DIIS TEST: 0.61195E+00 AT SCF   CYCLE   3 - DIIS ACTIVE - HISTORY:     3 CYCLES
 TTTTTTTTTTTTTTTTTTTTTTTTTTTTTT FDIK        TELAPSE      217.77 TCPU      216.53
 INSULATING STATE
 TOP OF VALENCE BANDS -    BAND     96; K    1; EIG -1.9556824E-01 AU
 BOTTOM OF VIRTUAL BANDS - BAND     97; K   20; EIG -9.6252987E-03 AU
 INDIRECT ENERGY BAND GAP:   5.0598 eV
 BOTTOM OF VIRTUAL BANDS - BAND     97; K    1; EIG -8.7185734E-03 AU
 TTTTTTTTTTTTTTTTTTTTTTTTTTTTTT PDIG        TELAPSE      217.91 TCPU      216.67
 TTTTTTTTTTTTTTTTTTTTTTTTTTTTTT MOQGAD      TELAPSE      217.93 TCPU      216.68
 TTTTTTTTTTTTTTTTTTTTTTTTTTTTTT SHELLXN     TELAPSE      255.76 TCPU      254.41
 TTTTTTTTTTTTTTTTTTTTTTTTTTTTTT MONMO3      TELAPSE      267.27 TCPU      265.88
 NUMERICALLY INTEGRATED DENSITY    191.9999020724
 TTTTTTTTTTTTTTTTTTTTTTTTTTTTTT NUMDFT      TELAPSE      270.33 TCPU      268.94
 CYC   4 ETOT(AU) -1.294314888872E+03 DETOT -7.57E-02 tst  4.82E-04 PX  3.67E-02
 TTTTTTTTTTTTTTTTTTTTTTTTTTTTTT DIIS        TELAPSE      270.53 TCPU      269.13
 DIIS TEST: 0.17652E-01 AT SCF   CYCLE   4 - DIIS ACTIVE - HISTORY:     4 CYCLES
 TTTTTTTTTTTTTTTTTTTTTTTTTTTTTT FDIK        TELAPSE      272.46 TCPU      271.04
 INSULATING STATE
 TOP OF VALENCE BANDS -    BAND     96; K    1; EIG -2.0364774E-01 AU
 BOTTOM OF VIRTUAL BANDS - BAND     97; K   20; EIG -1.2961795E-02 AU
 INDIRECT ENERGY BAND GAP:   5.1888 eV
 BOTTOM OF VIRTUAL BANDS - BAND     97; K    1; EIG -1.1812096E-02 AU
 TTTTTTTTTTTTTTTTTTTTTTTTTTTTTT PDIG        TELAPSE      272.56 TCPU      271.15
 TTTTTTTTTTTTTTTTTTTTTTTTTTTTTT MOQGAD      TELAPSE      272.58 TCPU      271.17
 TTTTTTTTTTTTTTTTTTTTTTTTTTTTTT SHELLXN     TELAPSE      310.32 TCPU      308.82
 TTTTTTTTTTTTTTTTTTTTTTTTTTTTTT MONMO3      TELAPSE      321.78 TCPU      320.25
 NUMERICALLY INTEGRATED DENSITY    191.9999038993
 TTTTTTTTTTTTTTTTTTTTTTTTTTTTTT NUMDFT      TELAPSE      324.93 TCPU      323.40
 CYC   5 ETOT(AU) -1.294315661286E+03 DETOT -7.72E-04 tst  6.20E-05 PX  1.58E-02
 TTTTTTTTTTTTTTTTTTTTTTTTTTTTTT DIIS        TELAPSE      325.95 TCPU      324.41
 DIIS TEST: 0.11723E-01 AT SCF   CYCLE   5 - DIIS ACTIVE - HISTORY:     5 CYCLES
 TTTTTTTTTTTTTTTTTTTTTTTTTTTTTT FDIK        TELAPSE      327.74 TCPU      325.65
 INSULATING STATE
 TOP OF VALENCE BANDS -    BAND     96; K    1; EIG -2.0118405E-01 AU
 BOTTOM OF VIRTUAL BANDS - BAND     97; K   20; EIG -1.2788454E-02 AU
 INDIRECT ENERGY BAND GAP:   5.1265 eV
 BOTTOM OF VIRTUAL BANDS - BAND     97; K    1; EIG -1.1769368E-02 AU
 TTTTTTTTTTTTTTTTTTTTTTTTTTTTTT PDIG        TELAPSE      327.90 TCPU      325.80
 TTTTTTTTTTTTTTTTTTTTTTTTTTTTTT MOQGAD      TELAPSE      327.91 TCPU      325.82
 TTTTTTTTTTTTTTTTTTTTTTTTTTTTTT SHELLXN     TELAPSE      365.84 TCPU      363.57
 TTTTTTTTTTTTTTTTTTTTTTTTTTTTTT MONMO3      TELAPSE      377.84 TCPU      375.54
 NUMERICALLY INTEGRATED DENSITY    191.9999030465
 TTTTTTTTTTTTTTTTTTTTTTTTTTTTTT NUMDFT      TELAPSE      381.01 TCPU      378.70
 CYC   6 ETOT(AU) -1.294317160535E+03 DETOT -1.50E-03 tst  2.42E-05 PX  4.65E-03
 TTTTTTTTTTTTTTTTTTTTTTTTTTTTTT DIIS        TELAPSE      381.98 TCPU      379.68
 DIIS TEST: 0.69366E-03 AT SCF   CYCLE   6 - DIIS ACTIVE - HISTORY:     6 CYCLES
 TTTTTTTTTTTTTTTTTTTTTTTTTTTTTT FDIK        TELAPSE      383.60 TCPU      381.25
 INSULATING STATE
 TOP OF VALENCE BANDS -    BAND     96; K    1; EIG -2.0113427E-01 AU
 BOTTOM OF VIRTUAL BANDS - BAND     97; K   20; EIG -1.2410794E-02 AU
 INDIRECT ENERGY BAND GAP:   5.1354 eV
 BOTTOM OF VIRTUAL BANDS - BAND     97; K    1; EIG -1.1445154E-02 AU
 TTTTTTTTTTTTTTTTTTTTTTTTTTTTTT PDIG        TELAPSE      383.76 TCPU      381.41
 TTTTTTTTTTTTTTTTTTTTTTTTTTTTTT MOQGAD      TELAPSE      383.78 TCPU      381.42
 TTTTTTTTTTTTTTTTTTTTTTTTTTTTTT SHELLXN     TELAPSE      421.18 TCPU      418.72
 TTTTTTTTTTTTTTTTTTTTTTTTTTTTTT MONMO3      TELAPSE      433.16 TCPU      430.68
 NUMERICALLY INTEGRATED DENSITY    191.9999029921
 TTTTTTTTTTTTTTTTTTTTTTTTTTTTTT NUMDFT      TELAPSE      436.33 TCPU      433.84
 CYC   7 ETOT(AU) -1.294317255067E+03 DETOT -9.45E-05 tst  7.52E-07 PX  1.80E-03
 TTTTTTTTTTTTTTTTTTTTTTTTTTTTTT DIIS        TELAPSE      436.49 TCPU      434.00
 DIIS TEST: 0.75310E-04 AT SCF   CYCLE   7 - DIIS ACTIVE - HISTORY:     7 CYCLES
 TTTTTTTTTTTTTTTTTTTTTTTTTTTTTT FDIK        TELAPSE      437.85 TCPU      435.33
 INSULATING STATE
 TOP OF VALENCE BANDS -    BAND     96; K    1; EIG -2.0163172E-01 AU
 BOTTOM OF VIRTUAL BANDS - BAND     97; K   20; EIG -1.2849611E-02 AU
 INDIRECT ENERGY BAND GAP:   5.1370 eV
 BOTTOM OF VIRTUAL BANDS - BAND     97; K    1; EIG -1.1836820E-02 AU
 TTTTTTTTTTTTTTTTTTTTTTTTTTTTTT PDIG        TELAPSE      437.96 TCPU      435.44
 TTTTTTTTTTTTTTTTTTTTTTTTTTTTTT MOQGAD      TELAPSE      437.97 TCPU      435.45
 TTTTTTTTTTTTTTTTTTTTTTTTTTTTTT SHELLXN     TELAPSE      475.50 TCPU      472.87
 TTTTTTTTTTTTTTTTTTTTTTTTTTTTTT MONMO3      TELAPSE      487.33 TCPU      484.68
 NUMERICALLY INTEGRATED DENSITY    191.9999030647
 TTTTTTTTTTTTTTTTTTTTTTTTTTTTTT NUMDFT      TELAPSE      490.46 TCPU      487.80
 CYC   8 ETOT(AU) -1.294317264976E+03 DETOT -9.91E-06 tst  8.00E-08 PX  7.53E-04
 TTTTTTTTTTTTTTTTTTTTTTTTTTTTTT DIIS        TELAPSE      491.11 TCPU      488.45
 DIIS TEST: 0.97614E-05 AT SCF   CYCLE   8 - DIIS ACTIVE - HISTORY:     8 CYCLES
 TTTTTTTTTTTTTTTTTTTTTTTTTTTTTT FDIK        TELAPSE      492.48 TCPU      489.81
 INSULATING STATE
 TOP OF VALENCE BANDS -    BAND     96; K    1; EIG -2.0150049E-01 AU
 BOTTOM OF VIRTUAL BANDS - BAND     97; K   20; EIG -1.2725206E-02 AU
 INDIRECT ENERGY BAND GAP:   5.1368 eV
 BOTTOM OF VIRTUAL BANDS - BAND     97; K    1; EIG -1.1723973E-02 AU
 TTTTTTTTTTTTTTTTTTTTTTTTTTTTTT PDIG        TELAPSE      492.59 TCPU      489.92
 TTTTTTTTTTTTTTTTTTTTTTTTTTTTTT MOQGAD      TELAPSE      492.60 TCPU      489.93
 TTTTTTTTTTTTTTTTTTTTTTTTTTTTTT SHELLXN     TELAPSE      530.23 TCPU      527.28
 TTTTTTTTTTTTTTTTTTTTTTTTTTTTTT MONMO3      TELAPSE      541.81 TCPU      538.83
 NUMERICALLY INTEGRATED DENSITY    191.9999030504
 TTTTTTTTTTTTTTTTTTTTTTTTTTTTTT NUMDFT      TELAPSE      544.97 TCPU      541.98
 CYC   9 ETOT(AU) -1.294317266357E+03 DETOT -1.38E-06 tst  7.34E-09 PX  2.26E-04
 TTTTTTTTTTTTTTTTTTTTTTTTTTTTTT DIIS        TELAPSE      545.06 TCPU      542.07
 DIIS TEST: 0.13640E-05 AT SCF   CYCLE   9 - DIIS ACTIVE - HISTORY:     9 CYCLES
 TTTTTTTTTTTTTTTTTTTTTTTTTTTTTT FDIK        TELAPSE      546.42 TCPU      543.42
 INSULATING STATE
 TOP OF VALENCE BANDS -    BAND     96; K    1; EIG -2.0151521E-01 AU
 BOTTOM OF VIRTUAL BANDS - BAND     97; K   20; EIG -1.2737736E-02 AU
 INDIRECT ENERGY BAND GAP:   5.1369 eV
 BOTTOM OF VIRTUAL BANDS - BAND     97; K    1; EIG -1.1736565E-02 AU
 TTTTTTTTTTTTTTTTTTTTTTTTTTTTTT PDIG        TELAPSE      546.52 TCPU      543.52
 TTTTTTTTTTTTTTTTTTTTTTTTTTTTTT MOQGAD      TELAPSE      546.54 TCPU      543.54
 TTTTTTTTTTTTTTTTTTTTTTTTTTTTTT SHELLXN     TELAPSE      583.96 TCPU      580.86
 TTTTTTTTTTTTTTTTTTTTTTTTTTTTTT MONMO3      TELAPSE      595.33 TCPU      592.22
 NUMERICALLY INTEGRATED DENSITY    191.9999030477
 TTTTTTTTTTTTTTTTTTTTTTTTTTTTTT NUMDFT      TELAPSE      598.50 TCPU      595.37
 CYC  10 ETOT(AU) -1.294317266505E+03 DETOT -1.48E-07 tst  5.44E-10 PX  4.91E-05
 TTTTTTTTTTTTTTTTTTTTTTTTTTTTTT DIIS        TELAPSE      599.35 TCPU      596.22
 DIIS TEST: 0.55943E-07 AT SCF   CYCLE  10 - DIIS ACTIVE - HISTORY:    10 CYCLES
 TTTTTTTTTTTTTTTTTTTTTTTTTTTTTT FDIK        TELAPSE      601.41 TCPU      598.02
 INSULATING STATE
 TOP OF VALENCE BANDS -    BAND     96; K    1; EIG -2.0151685E-01 AU
 BOTTOM OF VIRTUAL BANDS - BAND     97; K   20; EIG -1.2738880E-02 AU
 INDIRECT ENERGY BAND GAP:   5.1369 eV
 BOTTOM OF VIRTUAL BANDS - BAND     97; K    1; EIG -1.1737519E-02 AU
 TTTTTTTTTTTTTTTTTTTTTTTTTTTTTT PDIG        TELAPSE      601.57 TCPU      598.18
 TTTTTTTTTTTTTTTTTTTTTTTTTTTTTT MOQGAD      TELAPSE      601.58 TCPU      598.20
 TTTTTTTTTTTTTTTTTTTTTTTTTTTTTT SHELLXN     TELAPSE      638.95 TCPU      635.47
 TTTTTTTTTTTTTTTTTTTTTTTTTTTTTT MONMO3      TELAPSE      652.12 TCPU      648.60
 NUMERICALLY INTEGRATED DENSITY    191.9999030471
 TTTTTTTTTTTTTTTTTTTTTTTTTTTTTT NUMDFT      TELAPSE      655.30 TCPU      651.77
 CYC  11 ETOT(AU) -1.294317266509E+03 DETOT -3.43E-09 tst  3.00E-11 PX  2.82E-05
 TTTTTTTTTTTTTTTTTTTTTTTTTTTTTT DIIS        TELAPSE      655.52 TCPU      652.00
 DIIS TEST: 0.61095E-08 AT SCF   CYCLE  11 - DIIS ACTIVE - HISTORY:    11 CYCLES
 TTTTTTTTTTTTTTTTTTTTTTTTTTTTTT FDIK        TELAPSE      656.99 TCPU      653.33
 INSULATING STATE
 TOP OF VALENCE BANDS -    BAND     96; K    1; EIG -2.0151670E-01 AU
 BOTTOM OF VIRTUAL BANDS - BAND     97; K   20; EIG -1.2738856E-02 AU
 INDIRECT ENERGY BAND GAP:   5.1369 eV
 BOTTOM OF VIRTUAL BANDS - BAND     97; K    1; EIG -1.1737395E-02 AU
 TTTTTTTTTTTTTTTTTTTTTTTTTTTTTT PDIG        TELAPSE      657.14 TCPU      653.48
 TTTTTTTTTTTTTTTTTTTTTTTTTTTTTT MOQGAD      TELAPSE      657.16 TCPU      653.49
 TTTTTTTTTTTTTTTTTTTTTTTTTTTTTT SHELLXN     TELAPSE      694.46 TCPU      690.71
 TTTTTTTTTTTTTTTTTTTTTTTTTTTTTT MONMO3      TELAPSE      705.73 TCPU      701.95
 NUMERICALLY INTEGRATED DENSITY    191.9999030480
 TTTTTTTTTTTTTTTTTTTTTTTTTTTTTT NUMDFT      TELAPSE      708.94 TCPU      705.15
 CYC  12 ETOT(AU) -1.294317266515E+03 DETOT -6.19E-09 tst  2.26E-12 PX  7.30E-06
 TTTTTTTTTTTTTTTTTTTTTTTTTTTTTT DIIS        TELAPSE      709.54 TCPU      705.75
 DIIS TEST: 0.27886E-09 AT SCF   CYCLE  12 - DIIS ACTIVE - HISTORY:    12 CYCLES
 TTTTTTTTTTTTTTTTTTTTTTTTTTTTTT FDIK        TELAPSE      710.90 TCPU      707.07
 INSULATING STATE
 TOP OF VALENCE BANDS -    BAND     96; K    1; EIG -2.0151664E-01 AU
 BOTTOM OF VIRTUAL BANDS - BAND     97; K   20; EIG -1.2738828E-02 AU
 INDIRECT ENERGY BAND GAP:   5.1369 eV
 BOTTOM OF VIRTUAL BANDS - BAND     97; K    1; EIG -1.1737426E-02 AU
 TTTTTTTTTTTTTTTTTTTTTTTTTTTTTT PDIG        TELAPSE      711.06 TCPU      707.22
 TTTTTTTTTTTTTTTTTTTTTTTTTTTTTT MOQGAD      TELAPSE      711.07 TCPU      707.24
 TTTTTTTTTTTTTTTTTTTTTTTTTTTTTT SHELLXN     TELAPSE      748.65 TCPU      744.70
 TTTTTTTTTTTTTTTTTTTTTTTTTTTTTT MONMO3      TELAPSE      759.87 TCPU      755.89
 NUMERICALLY INTEGRATED DENSITY    191.9999030478
 TTTTTTTTTTTTTTTTTTTTTTTTTTTTTT NUMDFT      TELAPSE      763.03 TCPU      759.04
 CYC  13 ETOT(AU) -1.294317266514E+03 DETOT  3.54E-10 tst  1.51E-13 PX  1.42E-06
 TTTTTTTTTTTTTTTTTTTTTTTTTTTTTT DIIS        TELAPSE      763.85 TCPU      759.86
 DIIS TEST: 0.24067E-10 AT SCF   CYCLE  13 - DIIS ACTIVE - HISTORY:    13 CYCLES
 TTTTTTTTTTTTTTTTTTTTTTTTTTTTTT FDIK        TELAPSE      764.85 TCPU      760.84
 INSULATING STATE
 TOP OF VALENCE BANDS -    BAND     96; K    1; EIG -2.0151667E-01 AU
 BOTTOM OF VIRTUAL BANDS - BAND     97; K   20; EIG -1.2738806E-02 AU
 INDIRECT ENERGY BAND GAP:   5.1369 eV
 BOTTOM OF VIRTUAL BANDS - BAND     97; K    1; EIG -1.1737396E-02 AU
 TTTTTTTTTTTTTTTTTTTTTTTTTTTTTT PDIG        TELAPSE      764.95 TCPU      760.95
 TTTTTTTTTTTTTTTTTTTTTTTTTTTTTT MOQGAD      TELAPSE      764.97 TCPU      760.97
 TTTTTTTTTTTTTTTTTTTTTTTTTTTTTT SHELLXN     TELAPSE      802.38 TCPU      798.28
 TTTTTTTTTTTTTTTTTTTTTTTTTTTTTT MONMO3      TELAPSE      813.57 TCPU      809.45
 NUMERICALLY INTEGRATED DENSITY    191.9999030478
 TTTTTTTTTTTTTTTTTTTTTTTTTTTTTT NUMDFT      TELAPSE      816.65 TCPU      812.52
 CYC  14 ETOT(AU) -1.294317266514E+03 DETOT -6.48E-11 tst  6.95E-15 PX  3.82E-07
 TTTTTTTTTTTTTTTTTTTTTTTTTTTTTT DIIS        TELAPSE      816.90 TCPU      812.77
 DIIS TEST: 0.55144E-11 AT SCF   CYCLE  14 - DIIS ACTIVE - HISTORY:    14 CYCLES
 TTTTTTTTTTTTTTTTTTTTTTTTTTTTTT FDIK        TELAPSE      817.55 TCPU      813.40
 INSULATING STATE
 TOP OF VALENCE BANDS -    BAND     96; K    1; EIG -2.0151665E-01 AU
 BOTTOM OF VIRTUAL BANDS - BAND     97; K   20; EIG -1.2738794E-02 AU
 INDIRECT ENERGY BAND GAP:   5.1369 eV
 BOTTOM OF VIRTUAL BANDS - BAND     97; K    1; EIG -1.1737381E-02 AU
 TTTTTTTTTTTTTTTTTTTTTTTTTTTTTT PDIG        TELAPSE      817.71 TCPU      813.56
 TTTTTTTTTTTTTTTTTTTTTTTTTTTTTT MOQGAD      TELAPSE      817.72 TCPU      813.58
 TTTTTTTTTTTTTTTTTTTTTTTTTTTTTT SHELLXN     TELAPSE      855.23 TCPU      851.00
 ::: PSEUDO TOTAL   ENERGY                        -1.1230856873597E+03
 ::: VIRIAL COEFFICIENT                            1.0690811886435E+00
 TTTTTTTTTTTTTTTTTTTTTTTTTTTTTT MONMO3      TELAPSE      866.54 TCPU      862.27
 NUMERICALLY INTEGRATED DENSITY    191.9999030478
 TTTTTTTTTTTTTTTTTTTTTTTTTTTTTT NUMDFT      TELAPSE      869.69 TCPU      865.42
 CYC  15 ETOT(AU) -1.294317266514E+03 DETOT -2.27E-12 tst  1.21E-15 PX  3.82E-07

 == SCF ENDED - CONVERGENCE ON ENERGY      E(AU) -1.2943172665144E+03 CYCLES  15


 ENERGY EXPRESSION=HARTREE+FOCK EXCH*0.00000+(B97-3c     EXCH)*1.00000+B97-3c     CORR


 TOTAL ENERGY(DFT)(AU)( 15) -1.2943172665144E+03 DE-2.3E-12 tester 1.2E-15
 TTTTTTTTTTTTTTTTTTTTTTTTTTTTTT EDFT        TELAPSE      869.70 TCPU      865.42

 *******************************************************************************
 *                             FORCE CALCULATION                               *
 *******************************************************************************

 TTTTTTTTTTTTTTTTTTTTTTTTTTTTTT NUMDFG      TELAPSE      895.64 TCPU      891.31
 INFORMATION **** EXCPOG **** EXCH. BIPO BUFFER LENGTH (WORDS) =           0
 INFORMATION **** GENPOG **** BIPO BUFFER LENGTH (WORDS) =    11290800
 TTTTTTTTTTTTTTTTTTTTTTTTTTTTTT SHELXG      TELAPSE     1096.08 TCPU     1091.27


 D3 DISPERSION ENERGY (AU)      -2.0207023660383E-01
 GCP ENERGY (AU)                -1.3629361765388E-01
 TOTAL ENERGY + DISP + GCP (AU) -1.2946556303687E+03

 CARTESIAN FORCES IN HARTREE/BOHR (ANALYTICAL)
   ATOM                     X                   Y                   Z
   1   8            -2.268378569426E-06  6.148010823992E-06  3.782700539467E-06
   2   8             2.268378562320E-06 -6.148010816887E-06  3.782700544797E-06
   3   8            -2.268378558767E-06 -6.148010801788E-06 -3.782700540800E-06
   4   8             2.268378572978E-06  6.148010801788E-06 -3.782700547017E-06
   5   8            -6.542606264759E-06  3.709792117945E-08  5.066764457773E-06
   6   8             6.542606265647E-06 -3.709792695261E-08  5.066764471984E-06
   7   8            -6.542606281634E-06 -3.709791185358E-08 -5.066764471096E-06
   8   8             6.542606283411E-06  3.709790741269E-08 -5.066764489747E-06
   9   7            -8.955004648925E-08  1.103061597063E-06  3.948798850129E-06
  10   7             8.955004515698E-08 -1.103061600838E-06  3.948798839915E-06
  11   7            -8.955003938382E-08 -1.103061582519E-06 -3.948798837250E-06
  12   7             8.955003982791E-08  1.103061584795E-06 -3.948798828368E-06
  13   6             1.555126034614E-07 -2.627684546619E-07  5.924332948881E-06
  14   6            -1.555126105668E-07  2.627684608236E-07  5.924332953544E-06
  15   6             1.555126070141E-07  2.627684667911E-07 -5.924332940221E-06
  16   6            -1.555126309949E-07 -2.627684596024E-07 -5.924332944884E-06
  17   6            -3.202555203252E-06 -1.990676707919E-07  3.842378160090E-07
  18   6             3.202555206361E-06  1.990676694597E-07  3.842378069052E-07
  19   6            -3.202555207693E-06  1.990676787855E-07 -3.842378213381E-07
  20   6             3.202555208137E-06 -1.990676783414E-07 -3.842378100138E-07
  21   6            -2.089664290494E-06 -4.132555807335E-06 -8.014319015093E-07
  22   6             2.089664295823E-06  4.132555808223E-06 -8.014319061722E-07
  23   6            -2.089664297156E-06  4.132555808667E-06  8.014319030636E-07
  24   6             2.089664305149E-06 -4.132555819769E-06  8.014319088367E-07
  25   1             7.128088651553E-07  4.044281528781E-06  2.785483088630E-07
  26   1            -7.128088646002E-07 -4.044281527005E-06  2.785483081275E-07
  27   1             7.128088658215E-07 -4.044281527005E-06 -2.785483078777E-07
  28   1            -7.128088650443E-07  4.044281525895E-06 -2.785483058237E-07
  29   1            -3.648410806134E-06  1.862663628005E-06  1.539198864670E-06
  30   1             3.648410805690E-06 -1.862663626784E-06  1.539198865003E-06
  31   1            -3.648410804580E-06 -1.862663625007E-06 -1.539198864559E-06
  32   1             3.648410804136E-06  1.862663625563E-06 -1.539198863199E-06
  33   1             3.806296621722E-06 -5.379333243294E-07 -1.135694603027E-06
  34   1            -3.806296619002E-06  5.379333233857E-07 -1.135694608800E-06
  35   1             3.806296621833E-06  5.379333275490E-07  1.135694604582E-06
  36   1            -3.806296621722E-06 -5.379333279376E-07  1.135694604582E-06
  37   1            -2.960496475524E-06 -2.861001092258E-06  1.551365736985E-07
  38   1             2.960496475579E-06  2.861001092480E-06  1.551365721442E-07
  39   1            -2.960496476745E-06  2.861001094034E-06 -1.551365739205E-07
  40   1             2.960496476023E-06 -2.861001094479E-06 -1.551365728103E-07
  41   1            -2.175761323775E-06 -2.108883710661E-06  5.609799311745E-07
  42   1             2.175761323664E-06  2.108883711577E-06  5.609799325068E-07
  43   1            -2.175761324885E-06  2.108883713908E-06 -5.609799309525E-07
  44   1             2.175761324996E-06 -2.108883713936E-06 -5.609799311745E-07
  45   1            -3.276952823539E-06 -4.653530418883E-06  1.597278496135E-06
  46   1             3.276952825315E-06  4.653530419202E-06  1.597278497023E-06
  47   1            -3.276952824205E-06  4.653530421561E-06 -1.597278496690E-06
  48   1             3.276952824205E-06 -4.653530422796E-06 -1.597278496135E-06
  49   1             2.504238917900E-07 -8.513328195736E-07  1.453162844674E-07
  50   1            -2.504238913736E-07  8.513328195736E-07  1.453162830449E-07
  51   1             2.504238902912E-07  8.513328191295E-07 -1.453162843841E-07
  52   1            -2.504238893475E-07 -8.513328173532E-07 -1.453162835202E-07

 RESULTANT FORCE     4.163336342344E-16  2.775557561563E-16  6.033368249447E-15

 ATOMIC PART

 SYMMETRY ALLOWED FORCES (ANALYTICAL) (DIRECTION, FORCE)

    1 -4.5367571E-06    2  1.2296022E-05    3  7.5654011E-06    4 -1.3085213E-05
    5  7.4195834E-08    6  1.0133529E-05    7 -1.7910009E-07    8  2.2061232E-06
    9  7.8975977E-06   10  3.1102523E-07   11 -5.2553692E-07   12  1.1848666E-05
   13 -6.4051104E-06   14 -3.9813535E-07   15  7.6847563E-07   16 -4.1793286E-06
   17 -8.2651116E-06   18 -1.6028638E-06   19  1.4256177E-06   20  8.0885631E-06
   21  5.5709662E-07   22 -7.2968216E-06   23  3.7253273E-06   24  3.0783977E-06
   25  7.6125932E-06   26 -1.0758667E-06   27 -2.2713892E-06   28 -5.9209930E-06
   29 -5.7220022E-06   30  3.1027315E-07   31 -4.3515226E-06   32 -4.2177674E-06
   33  1.1219599E-06   34 -6.5539056E-06   35 -9.3070608E-06   36  3.1945570E-06
   37  5.0084778E-07   38 -1.7026656E-06   39  2.9063257E-07

 CELL PART

 GRADIENT WITH RESPECT TO THE CELL PARAMETER IN HARTREE/BOHR
ORDER: -D/DA1X, -D/DA1Y, -D/DA1Z
       -D/DA2X, -D/DA2Y, -D/DA2Z
       -D/DA3X, -D/DA3Y, -D/DA3Z
 -0.430652532026E-04 -0.529916088056E-14 -0.150706735278E-14
 -0.313561536363E-14  0.118828273044E-04 -0.738307617409E-15
 -0.174829788519E-14 -0.195030619042E-15 -0.483058315179E-04

STRESS TENSOR, IN HARTREE/BOHR^3:
ORDER: 11 12 13
       21 22 23
       31 32 33
  0.171114631596E-06  0.250412972437E-16  0.669795213044E-17
  0.210555818069E-16 -0.948972932315E-07  0.747187170661E-18
  0.598815183198E-17  0.589618890099E-17  0.185065800210E-06

PRESSURE FROM THE STRESS TENSOR,
IN HARTREE/BOHR^3: -0.87094E-07
PRESSURE IN GIGAPASCAL: -0.2562E-02
CONVERSION FACTOR: 1 HARTREE/BOHR^3= 29421 GIGAPASCAL
WHEN USING VALUES FOR BOHR RADIUS AND HARTREE
FROM IUPAC WEBSITE, APRIL 2009
ENTHALPY: -1.2946558801614E+03

 SYMMETRY ALLOWED FORCES (ANALYTICAL) (DIRECTION, FORCE)

    1 -1.3217182E-05    2 -1.0416476E-05    3  1.5508822E-05
 TTTTTTTTTTTTTTTTTTTTTTTTTTTTTT TOTGRA_C    TELAPSE     1169.59 TCPU     1164.60
 INFORMATION **** optc001 **** GEOMETRY OUTPUT FILE
 CLASSICAL MODEL (SCHLEGEL) USED AS INITIAL HESSIAN MATRIX
 REFERENCE GEOMETRY DEFINED

 MAX GRADIENT      0.000016  THRESHOLD              0.000045 CONVERGED YES
 RMS GRADIENT      0.000007  THRESHOLD              0.000030 CONVERGED YES

 WARNINGWARNINGWARNINGWARNINGWARNINGWARNINGWARNINGWARNINGWARNINGWARNINGWARNING

 CONVERGENCE ON GRADIENTS SATISFIED AFTER THE FIRST OPTIMIZATION CYCLE
 GEOMETRY OPTIMIZATION STOPPED

 WARNINGWARNINGWARNINGWARNINGWARNINGWARNINGWARNINGWARNINGWARNINGWARNINGWARNING


 ******************************************************************
 * OPT END - CONVERGED * E(AU):  -1.294655630369E+03  POINTS    1 *
 ******************************************************************

 ENERGY CONTRIBUTIONS OF SEMICLASSICAL CORRECTIONS
  D3 DISPERSION ENERGY (AU)      -2.020702366038E-01
  GCP ENERGY (AU)                -1.362936176539E-01
 
   BAND GAP:                      5.1369  eV 

 EIGENVECTORS IN FORTRAN UNIT 10

 NEIGHBORS OF THE NON-EQUIVALENT ATOMS

 N = NUMBER OF NEIGHBORS AT DISTANCE R
    ATOM  N     R/ANG      R/AU   NEIGHBORS (ATOM LABELS AND CELL INDICES)
   1 O    1     1.2499     2.3620   13 C    0 0 0
   1 O    1     1.8519     3.4996   26 H    0 0 0
   1 O    1     2.2414     4.2356    5 O   -1 0 0
   1 O    1     2.3466     4.4345   39 H    0 0 0
   1 O    1     2.3954     4.5267   17 C   -1 0-1
   1 O    1     2.5173     4.7570   25 H    0 0-1

   5 O    1     1.2684     2.3968   13 C    1 0 0
   5 O    1     1.7468     3.3009   33 H    1 0 0
   5 O    1     1.7977     3.3971   31 H    0 0 0
   5 O    1     2.2414     4.2356    1 O    1 0 0
   5 O    1     2.3714     4.4813   17 C    0 0-1
   5 O    1     2.5641     4.8454   37 H    0 0-1

   9 N    1     1.0280     1.9426   25 H    0 0 0
   9 N    1     1.0332     1.9524   29 H    0 0 0
   9 N    1     1.0439     1.9727   33 H    0 0 0
   9 N    1     1.4839     2.8042   17 C   -1 0 0
   9 N    1     2.0709     3.9135   37 H   -1 0 0
   9 N    1     2.4582     4.6454   21 C   -1 0 0

  13 C    1     1.2499     2.3620    1 O    0 0 0
  13 C    1     1.2684     2.3968    5 O   -1 0 0
  13 C    1     1.5298     2.8909   17 C   -1 0-1
  13 C    1     2.1353     4.0351   37 H   -1 0-1
  13 C    1     2.4422     4.6151   33 H    0 0 0
  13 C    1     2.4766     4.6802    9 N    0 0-1

  17 C    1     1.0858     2.0519   37 H    0 0 0
  17 C    1     1.4839     2.8042    9 N    1 0 0
  17 C    1     1.5156     2.8640   21 C    0 0 0
  17 C    1     1.5298     2.8909   13 C    1 0 1
  17 C    1     2.0717     3.9149   29 H    1 0 0
  17 C    1     2.0819     3.9343   33 H    1 0 0

  21 C    1     1.0837     2.0478   45 H    0 0 0
  21 C    1     1.0850     2.0504   41 H    0 0 0
  21 C    1     1.0857     2.0517   49 H    0 0 0
  21 C    1     1.5156     2.8640   17 C    0 0 0
  21 C    1     2.1444     4.0523   37 H    0 0 0
  21 C    1     2.4582     4.6454    9 N    1 0 0

  25 H    1     1.0280     1.9426    9 N    0 0 0
  25 H    1     1.6769     3.1688   33 H    0 0 0
  25 H    1     1.6888     3.1914   29 H    0 0 0
  25 H    1     1.8519     3.4996    2 O    0 0 0
  25 H    1     2.0940     3.9571   17 C   -1 0 0
  25 H    1     2.5173     4.7570    1 O    0 0 1

  29 H    1     1.0332     1.9524    9 N    0 0 0
  29 H    1     1.6788     3.1725   33 H    0 0 0
  29 H    1     1.6888     3.1914   25 H    0 0 0
  29 H    1     1.7977     3.3971    7 O    0 0 0
  29 H    1     2.0717     3.9149   17 C   -1 0 0
  29 H    1     2.3190     4.3822   37 H   -1 0 0

  33 H    1     1.0439     1.9727    9 N    0 0 0
  33 H    1     1.6769     3.1688   25 H    0 0 0
  33 H    1     1.6788     3.1725   29 H    0 0 0
  33 H    1     1.7468     3.3009    5 O   -1 0 0
  33 H    1     2.0819     3.9343   17 C   -1 0 0
  33 H    1     2.4007     4.5367   37 H   -1 0 0

  37 H    1     1.0858     2.0519   17 C    0 0 0
  37 H    1     2.0709     3.9135    9 N    1 0 0
  37 H    1     2.1353     4.0351   13 C    1 0 1
  37 H    1     2.1444     4.0523   21 C    0 0 0
  37 H    1     2.3190     4.3822   29 H    1 0 0
  37 H    1     2.3466     4.4345    3 O    0 0 0

  41 H    1     1.0850     2.0504   21 C    0 0 0
  41 H    1     1.7573     3.3208   45 H    0 0 0
  41 H    1     1.7617     3.3292   49 H    0 0 0
  41 H    1     2.1480     4.0591   17 C    0 0 0
  41 H    1     2.3781     4.4940   50 H    0 0 0
  41 H    1     2.4502     4.6302   33 H    1 0 0

  45 H    1     1.0837     2.0478   21 C    0 0 0
  45 H    1     1.7570     3.3202   49 H    0 0 0
  45 H    1     1.7573     3.3208   41 H    0 0 0
  45 H    1     2.1500     4.0630   17 C    0 0 0
  45 H    1     2.4947     4.7143   39 H    0 0 1
  45 H    1     2.5121     4.7473   37 H    0 0 0

  49 H    1     1.0857     2.0517   21 C    0 0 0
  49 H    1     1.7570     3.3202   45 H    0 0 0
  49 H    1     1.7617     3.3292   41 H    0 0 0
  49 H    1     2.1580     4.0780   17 C    0 0 0
  49 H    1     2.3781     4.4940   42 H    0 0 1
  49 H    1     2.5440     4.8075   46 H    0 0 0


 FINAL OPTIMIZED GEOMETRY - DIMENSIONALITY OF THE SYSTEM      3
 (NON PERIODIC DIRECTION: LATTICE PARAMETER FORMALLY SET TO 500)
 *******************************************************************************
 LATTICE PARAMETERS (ANGSTROMS AND DEGREES) - BOHR = 0.5291772083 ANGSTROM
 PRIMITIVE CELL - CENTRING CODE 1/0 VOLUME=   425.003981 - DENSITY  1.392 g/cm^3
         A              B              C           ALPHA      BETA       GAMMA 
     6.03046607    12.12061834     5.81456653    90.000000  90.000000  90.000000
 *******************************************************************************
 ATOMS IN THE ASYMMETRIC UNIT   13 - ATOMS IN THE UNIT CELL:   52
     ATOM                 X/A                 Y/B                 Z/C    
 *******************************************************************************
      1 T   8 O    -2.678234818102E-01  8.493181698581E-02 -3.643262223718E-01
      2 F   8 O    -2.321765181898E-01 -8.493181698581E-02  1.356737776282E-01
      3 F   8 O     2.321765181898E-01  4.150681830142E-01  3.643262223718E-01
      4 F   8 O     2.678234818102E-01 -4.150681830142E-01 -1.356737776282E-01
      5 T   8 O     4.467765526115E-01  1.832187351021E-01 -2.264773875019E-01
      6 F   8 O     5.322344738851E-02 -1.832187351021E-01  2.735226124981E-01
      7 F   8 O    -5.322344738851E-02  3.167812648979E-01  2.264773875019E-01
      8 F   8 O    -4.467765526115E-01 -3.167812648979E-01 -2.735226124981E-01
      9 T   7 N    -3.534718654537E-01  1.401112841494E-01  1.956984907301E-01
     10 F   7 N    -1.465281345463E-01 -1.401112841494E-01 -3.043015092699E-01
     11 F   7 N     1.465281345463E-01  3.598887158506E-01 -1.956984907301E-01
     12 F   7 N     3.534718654537E-01 -3.598887158506E-01  3.043015092699E-01
     13 T   6 C    -4.405260295760E-01  1.408058779413E-01 -3.880468070372E-01
     14 F   6 C    -5.947397042404E-02 -1.408058779413E-01  1.119531929628E-01
     15 F   6 C     5.947397042404E-02  3.591941220587E-01  3.880468070372E-01
     16 F   6 C     4.405260295760E-01 -3.591941220587E-01 -1.119531929628E-01
     17 T   6 C     4.709762485621E-01  1.611651151183E-01  3.690659298555E-01
     18 F   6 C     2.902375143793E-02 -1.611651151183E-01 -1.309340701445E-01
     19 F   6 C    -2.902375143793E-02  3.388348848817E-01 -3.690659298555E-01
     20 F   6 C    -4.709762485621E-01 -3.388348848817E-01  1.309340701445E-01
     21 T   6 C     2.694673716362E-01  9.047685468002E-02  3.185818091412E-01
     22 F   6 C     2.305326283638E-01 -9.047685468002E-02 -1.814181908588E-01
     23 F   6 C    -2.305326283638E-01  4.095231453200E-01 -3.185818091412E-01
     24 F   6 C    -2.694673716362E-01 -4.095231453200E-01  1.814181908588E-01
     25 T   1 H    -2.937440024393E-01  6.084721201532E-02  2.065109576563E-01
     26 F   1 H    -2.062559975607E-01 -6.084721201532E-02 -2.934890423437E-01
     27 F   1 H     2.062559975607E-01  4.391527879847E-01 -2.065109576563E-01
     28 F   1 H     2.937440024393E-01 -4.391527879847E-01  2.934890423437E-01
     29 T   1 H    -2.257529978708E-01  1.958960594301E-01  2.181732052311E-01
     30 F   1 H    -2.742470021292E-01 -1.958960594301E-01 -2.818267947689E-01
     31 F   1 H     2.742470021292E-01  3.041039405699E-01 -2.181732052311E-01
     32 F   1 H     2.257529978708E-01 -3.041039405699E-01  2.818267947689E-01
[...]
            Y     0.0135    0.0139   -0.0029    0.0040    0.0085   -0.0087
            Z     0.0012    0.0012   -0.0001    0.0002    0.0005   -0.0005
 AT.  39 H  X     0.0031   -0.0032    0.0006    0.0009    0.0021    0.0021
            Y     0.0135   -0.0139    0.0029    0.0040    0.0085    0.0087
            Z    -0.0012    0.0012   -0.0001   -0.0002   -0.0005   -0.0005
 AT.  40 H  X     0.0031   -0.0032   -0.0006    0.0009   -0.0021    0.0021
            Y     0.0135   -0.0139   -0.0029    0.0040   -0.0085    0.0087
            Z     0.0012   -0.0012   -0.0001    0.0002   -0.0005    0.0005
 AT.  41 H  X    -0.0244   -0.0255    0.0154    0.0136   -0.0130   -0.0114
            Y     0.0148    0.0155   -0.0098   -0.0089    0.0084    0.0075
            Z    -0.0597   -0.0621    0.0342    0.0300   -0.0284   -0.0243
 AT.  42 H  X    -0.0244   -0.0255   -0.0154    0.0136    0.0130   -0.0114
            Y     0.0148    0.0155    0.0098   -0.0089   -0.0084    0.0075
            Z     0.0597    0.0621    0.0342   -0.0300   -0.0284    0.0243
 AT.  43 H  X     0.0244   -0.0255   -0.0154   -0.0136   -0.0130   -0.0114
            Y     0.0148   -0.0155   -0.0098   -0.0089   -0.0084   -0.0075
            Z    -0.0597    0.0621    0.0342    0.0300    0.0284    0.0243
 AT.  44 H  X     0.0244   -0.0255    0.0154   -0.0136    0.0130   -0.0114
            Y     0.0148   -0.0155    0.0098   -0.0089    0.0084   -0.0075
            Z     0.0597   -0.0621    0.0342   -0.0300    0.0284   -0.0243
 AT.  45 H  X    -0.0006    0.0042   -0.0559   -0.0554    0.0550    0.0558
            Y    -0.0010   -0.0021    0.0122    0.0123   -0.0118   -0.0121
            Z     0.0022   -0.0025    0.0539    0.0536   -0.0531   -0.0539
 AT.  46 H  X    -0.0006    0.0042    0.0559   -0.0554   -0.0550    0.0558
            Y    -0.0010   -0.0021   -0.0122    0.0123    0.0118   -0.0121
            Z    -0.0022    0.0025    0.0539   -0.0536   -0.0531    0.0539
 AT.  47 H  X     0.0006    0.0042    0.0559    0.0554    0.0550    0.0558
            Y    -0.0010    0.0021    0.0122    0.0123    0.0118    0.0121
            Z     0.0022    0.0025    0.0539    0.0536    0.0531    0.0539
 AT.  48 H  X     0.0006    0.0042   -0.0559    0.0554   -0.0550    0.0558
            Y    -0.0010    0.0021   -0.0122    0.0123   -0.0118    0.0121
            Z    -0.0022   -0.0025    0.0539   -0.0536    0.0531   -0.0539
 AT.  49 H  X    -0.0150   -0.0143   -0.0065   -0.0070    0.0077    0.0082
            Y     0.0619    0.0589    0.0283    0.0303   -0.0332   -0.0354
            Z     0.0004    0.0005   -0.0016   -0.0017    0.0015    0.0016
 AT.  50 H  X    -0.0150   -0.0143    0.0065   -0.0070   -0.0077    0.0082
            Y     0.0619    0.0589   -0.0283    0.0303    0.0332   -0.0354
            Z    -0.0004   -0.0005   -0.0016    0.0017    0.0015   -0.0016
 AT.  51 H  X     0.0150   -0.0143    0.0065    0.0070    0.0077    0.0082
            Y     0.0619   -0.0589    0.0283    0.0303    0.0332    0.0354
            Z     0.0004   -0.0005   -0.0016   -0.0017   -0.0015   -0.0016
 AT.  52 H  X     0.0150   -0.0143   -0.0065    0.0070   -0.0077    0.0082
            Y     0.0619   -0.0589   -0.0283    0.0303   -0.0332    0.0354
            Z    -0.0004    0.0005   -0.0016    0.0017   -0.0015    0.0016

 FREQ(CM**-1)   3142.95   3157.05   3246.64   3253.55   3253.62   3281.00

 AT.   1 O  X     0.0003    0.0002    0.0003   -0.0002    0.0002   -0.0001
            Y    -0.0002   -0.0001   -0.0003    0.0002   -0.0002    0.0000
            Z    -0.0000   -0.0000    0.0001   -0.0000    0.0001   -0.0000
 AT.   2 O  X     0.0003   -0.0002   -0.0003   -0.0002   -0.0002   -0.0001
            Y    -0.0002    0.0001    0.0003    0.0002    0.0002    0.0000
            Z     0.0000   -0.0000    0.0001    0.0000    0.0001    0.0000
 AT.   3 O  X    -0.0003   -0.0002    0.0003    0.0002   -0.0002   -0.0001
            Y    -0.0002   -0.0001    0.0003    0.0002   -0.0002   -0.0000
            Z    -0.0000   -0.0000   -0.0001   -0.0000    0.0001    0.0000
 AT.   4 O  X    -0.0003    0.0002   -0.0003    0.0002    0.0002   -0.0001
            Y    -0.0002    0.0001   -0.0003    0.0002    0.0002   -0.0000
            Z     0.0000   -0.0000   -0.0001    0.0000    0.0001   -0.0000
 AT.   5 O  X     0.0001    0.0001    0.0002   -0.0002    0.0001   -0.0000
            Y    -0.0002   -0.0001   -0.0002    0.0002   -0.0000   -0.0000
            Z    -0.0004   -0.0003   -0.0002    0.0001   -0.0001   -0.0000
 AT.   6 O  X     0.0001   -0.0001   -0.0002   -0.0002   -0.0001   -0.0000
            Y    -0.0002    0.0001    0.0002    0.0002    0.0000   -0.0000
            Z     0.0004   -0.0003   -0.0002   -0.0001   -0.0001    0.0000
 AT.   7 O  X    -0.0001   -0.0001    0.0002    0.0002   -0.0001   -0.0000
            Y    -0.0002   -0.0001    0.0002    0.0002   -0.0000    0.0000
            Z    -0.0004   -0.0003    0.0002    0.0001   -0.0001    0.0000
 AT.   8 O  X    -0.0001    0.0001   -0.0002    0.0002    0.0001   -0.0000
            Y    -0.0002    0.0001   -0.0002    0.0002    0.0000    0.0000
            Z     0.0004   -0.0003    0.0002   -0.0001   -0.0001   -0.0000
 AT.   9 N  X     0.0053    0.0058    0.0018    0.0023    0.0009    0.0016
            Y     0.0042    0.0025   -0.0068   -0.0063   -0.0071   -0.0068
            Z     0.0016    0.0016    0.0005    0.0007    0.0002    0.0006
 AT.  10 N  X     0.0053   -0.0058   -0.0018    0.0023   -0.0009    0.0016
            Y     0.0042   -0.0025    0.0068   -0.0063    0.0071   -0.0068
            Z    -0.0016    0.0016    0.0005   -0.0007    0.0002   -0.0006
 AT.  11 N  X    -0.0053   -0.0058    0.0018   -0.0023   -0.0009    0.0016
            Y     0.0042    0.0025    0.0068   -0.0063   -0.0071    0.0068
            Z     0.0016    0.0016   -0.0005    0.0007    0.0002   -0.0006
 AT.  12 N  X    -0.0053    0.0058   -0.0018   -0.0023    0.0009    0.0016
            Y     0.0042   -0.0025   -0.0068   -0.0063    0.0071    0.0068
            Z    -0.0016    0.0016   -0.0005   -0.0007    0.0002    0.0006
 AT.  13 C  X    -0.0006   -0.0005   -0.0006    0.0004   -0.0004    0.0002
            Y     0.0003    0.0002    0.0003   -0.0002    0.0002   -0.0000
            Z     0.0006    0.0004    0.0002   -0.0002   -0.0001    0.0001
 AT.  14 C  X    -0.0006    0.0005    0.0006    0.0004    0.0004    0.0002
            Y     0.0003   -0.0002   -0.0003   -0.0002   -0.0002   -0.0000
            Z    -0.0006    0.0004    0.0002    0.0002   -0.0001   -0.0001
 AT.  15 C  X     0.0006    0.0005   -0.0006   -0.0004    0.0004    0.0002
            Y     0.0003    0.0002   -0.0003   -0.0002    0.0002    0.0000
            Z     0.0006    0.0004   -0.0002   -0.0002   -0.0001   -0.0001
 AT.  16 C  X     0.0006   -0.0005    0.0006   -0.0004   -0.0004    0.0002
            Y     0.0003   -0.0002    0.0003   -0.0002   -0.0002    0.0000
            Z    -0.0006    0.0004   -0.0002    0.0002   -0.0001    0.0001
 AT.  17 C  X     0.0001    0.0002    0.0002    0.0001    0.0002    0.0001
            Y     0.0001   -0.0001   -0.0001   -0.0002   -0.0003   -0.0002
            Z    -0.0002   -0.0002   -0.0001   -0.0001   -0.0001   -0.0001
 AT.  18 C  X     0.0001   -0.0002   -0.0002    0.0001   -0.0002    0.0001
            Y     0.0001    0.0001    0.0001   -0.0002    0.0003   -0.0002
            Z     0.0002   -0.0002   -0.0001    0.0001   -0.0001    0.0001
 AT.  19 C  X    -0.0001   -0.0002    0.0002   -0.0001   -0.0002    0.0001
            Y     0.0001   -0.0001    0.0001   -0.0002   -0.0003    0.0002
            Z    -0.0002   -0.0002    0.0001   -0.0001   -0.0001    0.0001
 AT.  20 C  X    -0.0001    0.0002   -0.0002   -0.0001    0.0002    0.0001
            Y     0.0001    0.0001   -0.0001   -0.0002    0.0003    0.0002
            Z     0.0002   -0.0002    0.0001    0.0001   -0.0001   -0.0001
 AT.  21 C  X     0.0011    0.0007   -0.0000    0.0001   -0.0001   -0.0000
            Y    -0.0008   -0.0008    0.0000    0.0000    0.0001    0.0002
            Z    -0.0012   -0.0003    0.0000   -0.0001    0.0000   -0.0000
 AT.  22 C  X     0.0011   -0.0007    0.0000    0.0001    0.0001   -0.0000
            Y    -0.0008    0.0008   -0.0000    0.0000   -0.0001    0.0002
            Z     0.0012   -0.0003    0.0000    0.0001    0.0000    0.0000
 AT.  23 C  X    -0.0011   -0.0007   -0.0000   -0.0001    0.0001   -0.0000
            Y    -0.0008   -0.0008   -0.0000    0.0000    0.0001   -0.0002
            Z    -0.0012   -0.0003   -0.0000   -0.0001    0.0000    0.0000
 AT.  24 C  X    -0.0011    0.0007    0.0000   -0.0001   -0.0001   -0.0000
            Y    -0.0008    0.0008    0.0000    0.0000   -0.0001   -0.0002
            Z     0.0012   -0.0003   -0.0000    0.0001    0.0000   -0.0000
 AT.  25 H  X    -0.0006   -0.0093   -0.0321   -0.0322   -0.0311   -0.0314
            Y     0.0010    0.0238    0.0855    0.0862    0.0828    0.0847
            Z     0.0007   -0.0019   -0.0079   -0.0076   -0.0077   -0.0071
 AT.  26 H  X    -0.0006    0.0093    0.0321   -0.0322    0.0311   -0.0314
            Y     0.0010   -0.0238   -0.0855    0.0862   -0.0828    0.0847
            Z    -0.0007   -0.0019   -0.0079    0.0076   -0.0077    0.0071
 AT.  27 H  X     0.0006    0.0093   -0.0321    0.0322    0.0311   -0.0314
            Y     0.0010    0.0238   -0.0855    0.0862    0.0828   -0.0847
            Z     0.0007   -0.0019    0.0079   -0.0076   -0.0077    0.0071
 AT.  28 H  X     0.0006   -0.0093    0.0321    0.0322   -0.0311   -0.0314
            Y     0.0010   -0.0238    0.0855    0.0862   -0.0828   -0.0847
            Z    -0.0007   -0.0019    0.0079    0.0076   -0.0077   -0.0071
 AT.  29 H  X    -0.0689   -0.0675    0.0078   -0.0001    0.0175    0.0103
            Y    -0.0575   -0.0571    0.0062   -0.0008    0.0148    0.0083
            Z    -0.0118   -0.0115    0.0016    0.0003    0.0031    0.0021
 AT.  30 H  X    -0.0689    0.0675   -0.0078   -0.0001   -0.0175    0.0103
            Y    -0.0575    0.0571   -0.0062   -0.0008   -0.0148    0.0083
            Z     0.0118   -0.0115    0.0016   -0.0003    0.0031   -0.0021
 AT.  31 H  X     0.0689    0.0675    0.0078    0.0001   -0.0175    0.0103
            Y    -0.0575   -0.0571   -0.0062   -0.0008    0.0148   -0.0083
            Z    -0.0118   -0.0115   -0.0016    0.0003    0.0031   -0.0021
 AT.  32 H  X     0.0689   -0.0675   -0.0078    0.0001    0.0175    0.0103
            Y    -0.0575    0.0571    0.0062   -0.0008   -0.0148   -0.0083
            Z     0.0118   -0.0115   -0.0016   -0.0003    0.0031    0.0021
 AT.  33 H  X    -0.0039   -0.0028   -0.0005   -0.0006    0.0009   -0.0014
            Y     0.0017    0.0007   -0.0006   -0.0007   -0.0009   -0.0000
            Z    -0.0107   -0.0079   -0.0011   -0.0021    0.0025   -0.0040
 AT.  34 H  X    -0.0039    0.0028    0.0005   -0.0006   -0.0009   -0.0014
            Y     0.0017   -0.0007    0.0006   -0.0007    0.0009   -0.0000
            Z     0.0107   -0.0079   -0.0011    0.0021    0.0025    0.0040
 AT.  35 H  X     0.0039    0.0028   -0.0005    0.0006   -0.0009   -0.0014
            Y     0.0017    0.0007    0.0006   -0.0007   -0.0009    0.0000
            Z    -0.0107   -0.0079    0.0011   -0.0021    0.0025    0.0040
 AT.  36 H  X     0.0039   -0.0028    0.0005    0.0006    0.0009   -0.0014
            Y     0.0017   -0.0007   -0.0006   -0.0007    0.0009    0.0000
            Z     0.0107   -0.0079    0.0011    0.0021    0.0025   -0.0040
 AT.  37 H  X     0.0009    0.0001   -0.0012   -0.0013   -0.0020   -0.0016
            Y    -0.0034   -0.0008    0.0021    0.0026    0.0048    0.0028
            Z     0.0004    0.0005    0.0009    0.0005    0.0006    0.0005
 AT.  38 H  X     0.0009   -0.0001    0.0012   -0.0013    0.0020   -0.0016
            Y    -0.0034    0.0008   -0.0021    0.0026   -0.0048    0.0028
            Z    -0.0004    0.0005    0.0009   -0.0005    0.0006   -0.0005
 AT.  39 H  X    -0.0009   -0.0001   -0.0012    0.0013    0.0020   -0.0016
            Y    -0.0034   -0.0008   -0.0021    0.0026    0.0048   -0.0028
            Z     0.0004    0.0005   -0.0009    0.0005    0.0006   -0.0005
 AT.  40 H  X    -0.0009    0.0001    0.0012    0.0013   -0.0020   -0.0016
            Y    -0.0034    0.0008    0.0021    0.0026   -0.0048   -0.0028
            Z    -0.0004    0.0005   -0.0009   -0.0005    0.0006    0.0005
 AT.  41 H  X     0.0012   -0.0005    0.0002   -0.0001    0.0003   -0.0001
            Y    -0.0009    0.0000    0.0001   -0.0000    0.0001    0.0001
            Z     0.0016   -0.0024    0.0001   -0.0003    0.0007    0.0001
 AT.  42 H  X     0.0012    0.0005   -0.0002   -0.0001   -0.0003   -0.0001
            Y    -0.0009   -0.0000   -0.0001   -0.0000   -0.0001    0.0001
            Z    -0.0016   -0.0024    0.0001    0.0003    0.0007   -0.0001
 AT.  43 H  X    -0.0012    0.0005    0.0002    0.0001   -0.0003   -0.0001
            Y    -0.0009    0.0000   -0.0001   -0.0000    0.0001   -0.0001
            Z     0.0016   -0.0024   -0.0001   -0.0003    0.0007   -0.0001
 AT.  44 H  X    -0.0012   -0.0005   -0.0002    0.0001    0.0003   -0.0001
            Y    -0.0009   -0.0000    0.0001   -0.0000   -0.0001   -0.0001
            Z    -0.0016   -0.0024   -0.0001    0.0003    0.0007    0.0001
 AT.  45 H  X    -0.0134   -0.0068    0.0001   -0.0012    0.0005   -0.0006
            Y     0.0026    0.0008   -0.0000    0.0001   -0.0000    0.0003
            Z     0.0131    0.0067   -0.0002    0.0009   -0.0007    0.0003
 AT.  46 H  X    -0.0134    0.0068   -0.0001   -0.0012   -0.0005   -0.0006
            Y     0.0026   -0.0008    0.0000    0.0001    0.0000    0.0003
            Z    -0.0131    0.0067   -0.0002   -0.0009   -0.0007   -0.0003
 AT.  47 H  X     0.0134    0.0068    0.0001    0.0012   -0.0005   -0.0006
            Y     0.0026    0.0008    0.0000    0.0001   -0.0000   -0.0003
            Z     0.0131    0.0067    0.0002    0.0009   -0.0007   -0.0003
 AT.  48 H  X     0.0134   -0.0068   -0.0001    0.0012    0.0005   -0.0006
            Y     0.0026   -0.0008   -0.0000    0.0001    0.0000   -0.0003
            Z    -0.0131    0.0067    0.0002   -0.0009   -0.0007    0.0003
 AT.  49 H  X    -0.0017   -0.0021    0.0001    0.0003    0.0003    0.0010
            Y     0.0080    0.0084   -0.0002   -0.0001   -0.0007   -0.0020
            Z    -0.0003   -0.0002   -0.0000   -0.0000    0.0000    0.0001
 AT.  50 H  X    -0.0017    0.0021   -0.0001    0.0003   -0.0003    0.0010
            Y     0.0080   -0.0084    0.0002   -0.0001    0.0007   -0.0020
            Z     0.0003   -0.0002   -0.0000    0.0000    0.0000   -0.0001
 AT.  51 H  X     0.0017    0.0021    0.0001   -0.0003   -0.0003    0.0010
            Y     0.0080    0.0084    0.0002   -0.0001   -0.0007    0.0020
            Z    -0.0003   -0.0002    0.0000   -0.0000    0.0000   -0.0001
 AT.  52 H  X     0.0017   -0.0021   -0.0001   -0.0003    0.0003    0.0010
            Y     0.0080   -0.0084   -0.0002   -0.0001    0.0007    0.0020
            Z     0.0003   -0.0002    0.0000    0.0000    0.0000    0.0001

 *******************************************************************************

 VIBRATIONAL TEMPERATURES (K) [MODE NUMBER;IRREP]

 TO MODES
    57.8 [   4;A  ]    71.3 [   5;A  ]   103.3 [   6;B3 ]   128.4 [   7;B3 ]
   131.1 [   8;B2 ]   139.5 [   9;B1 ]   153.7 [  10;B2 ]   156.1 [  11;A  ]
   163.0 [  12;B2 ]   164.7 [  13;B3 ]   172.8 [  14;B1 ]   182.2 [  15;A  ]
   186.8 [  16;B1 ]   205.0 [  17;B1 ]   205.6 [  18;B2 ]   209.9 [  19;A  ]
   226.4 [  20;B3 ]   227.3 [  21;A  ]   236.5 [  22;B1 ]   239.5 [  23;B3 ]
   262.8 [  24;B2 ]   297.6 [  25;A  ]   303.1 [  26;B2 ]   312.2 [  27;B3 ]
   341.4 [  28;B1 ]   370.6 [  29;B1 ]   383.3 [  30;A  ]   388.1 [  31;B3 ]
   394.3 [  32;B2 ]   395.1 [  33;B3 ]   406.5 [  34;B2 ]   424.5 [  35;B1 ]
   427.9 [  36;A  ]   468.4 [  37;B3 ]   473.8 [  38;B2 ]   498.2 [  39;A  ]
   502.0 [  40;B1 ]   584.9 [  41;A  ]   588.5 [  42;B2 ]   598.3 [  43;B3 ]
   606.0 [  44;B1 ]   761.3 [  45;A  ]   768.1 [  46;B1 ]   769.8 [  47;B2 ]
   771.4 [  48;B3 ]   792.3 [  49;A  ]   800.7 [  50;B2 ]   804.7 [  51;B1 ]
   812.7 [  52;B3 ]   930.9 [  53;B3 ]   936.8 [  54;B1 ]   939.6 [  55;B2 ]
   945.8 [  56;A  ]  1097.9 [  57;B3 ]  1100.0 [  58;B1 ]  1102.2 [  59;A  ]
  1104.7 [  60;B2 ]  1219.3 [  61;B3 ]  1223.8 [  62;B1 ]  1225.0 [  63;B2 ]
  1226.2 [  64;A  ]  1312.4 [  65;A  ]  1318.2 [  66;B2 ]  1318.5 [  67;B1 ]
  1323.0 [  68;B3 ]  1480.2 [  69;A  ]  1481.0 [  70;B2 ]  1486.8 [  71;B3 ]
  1490.0 [  72;B1 ]  1496.2 [  73;A  ]  1496.8 [  74;B2 ]  1497.7 [  75;B1 ]
  1499.4 [  76;B3 ]  1611.1 [  77;B2 ]  1612.9 [  78;A  ]  1616.7 [  79;B3 ]
  1618.3 [  80;B1 ]  1695.6 [  81;A  ]  1696.2 [  82;B1 ]  1708.9 [  83;B2 ]
  1709.5 [  84;B3 ]  1826.2 [  85;A  ]  1828.0 [  86;B2 ]  1832.2 [  87;B1 ]
  1832.6 [  88;B3 ]  1910.1 [  89;A  ]  1916.0 [  90;B1 ]  1917.1 [  91;B2 ]
  1923.3 [  92;B3 ]  1975.2 [  93;B2 ]  1976.1 [  94;A  ]  1977.6 [  95;B3 ]
  1979.2 [  96;B1 ]  2025.0 [  97;A  ]  2025.0 [  98;B1 ]  2032.7 [  99;B3 ]
  2033.4 [ 100;B2 ]  2054.7 [ 101;A  ]  2057.1 [ 102;B2 ]  2061.3 [ 103;B1 ]
  2062.6 [ 104;B3 ]  2151.1 [ 105;B1 ]  2154.1 [ 106;A  ]  2160.3 [ 107;B3 ]
  2161.1 [ 108;B2 ]  2165.0 [ 109;A  ]  2165.6 [ 110;B1 ]  2194.5 [ 111;B3 ]
  2195.7 [ 112;B2 ]  2257.7 [ 113;A  ]  2278.7 [ 114;B1 ]  2284.5 [ 115;B2 ]
  2299.4 [ 116;B3 ]  2313.4 [ 117;B3 ]  2334.1 [ 118;B2 ]  2337.6 [ 119;A  ]
  2347.9 [ 120;B1 ]  2416.1 [ 121;A  ]  2421.2 [ 122;B1 ]  2429.0 [ 123;B2 ]
  2431.1 [ 124;B3 ]  2485.4 [ 125;B3 ]  2489.8 [ 126;B1 ]  2491.6 [ 127;A  ]
  2495.0 [ 128;B2 ]  4232.1 [ 129;A  ]  4235.1 [ 130;B2 ]  4251.3 [ 131;B1 ]
  4254.5 [ 132;B3 ]  4378.9 [ 133;B3 ]  4379.4 [ 134;B2 ]  4388.9 [ 135;B1 ]
  4389.6 [ 136;A  ]  4420.2 [ 137;B1 ]  4421.0 [ 138;B3 ]  4421.0 [ 139;B2 ]
  4421.2 [ 140;A  ]  4489.4 [ 141;B2 ]  4489.7 [ 142;A  ]  4494.9 [ 143;B1 ]
  4495.5 [ 144;A  ]  4502.7 [ 145;B3 ]  4503.1 [ 146;B2 ]  4509.9 [ 147;B1 ]
  4511.3 [ 148;B3 ]  4511.4 [ 149;A  ]  4513.1 [ 150;B2 ]  4522.0 [ 151;B3 ]
  4542.3 [ 152;B1 ]  4671.2 [ 153;A  ]  4681.1 [ 154;B3 ]  4681.2 [ 155;B1 ]
  4720.6 [ 156;B2 ]

 *******************************************************************************

 HARMONIC VIBRATIONAL CONTRIBUTIONS TO THERMODYNAMIC FUNCTIONS AT GIVEN
 TEMPERATURE AND PRESSURE:

 (EL = ELECTRONIC ENERGY
  E0 = ZERO-POINT ENERGY
  ET = THERMAL CONTRIBUTION TO THE VIBRATIONAL ENERGY
  PV = PRESSURE * VOLUME
  TS = TEMPERATURE * ENTROPY)

                          AU/CELL             EV/CELL                 KJ/MOL
 EL            :   -1294.655630368681  -35229.370728930851    -3399117.87851039
 E0            :       0.446409569893      12.147421959800        1172.04816058


 *******************************************************************************

 THERMODYNAMIC FUNCTIONS WITH VIBRATIONAL CONTRIBUTIONS

 AT (T =  298.15 K, P =   0.10132500E+00 MPA):

                          AU/CELL             EV/CELL                 KJ/MOL
 ET            :       0.026683152908       0.726085504097          70.05660809
 PV            :       0.000009877536       0.000268781432           0.02593347
 TS            :       0.050559262838       1.375787485500         132.74332587
 ET+PV-TS      :      -0.023866232393      -0.649433199971         -62.66078432
 EL+E0+ET+PV-TS:   -1294.233087031181  -35217.872740171028    -3398008.49113412

 OTHER THERMODYNAMIC FUNCTIONS:

                      mHARTREE/(CELL*K)     mEV/(CELL*K)              J/(MOL*K)
 ENTROPY       :       0.169576598483       4.614413836996         445.22329657
 HEAT CAPACITY :       0.162389375489       4.418839556520         426.35324526

 *******************************************************************************
 TTTTTTTTTTTTTTTTTTTTTTTTTTTTTT END         TELAPSE   139577.15 TCPU   138030.42
 EEEEEEEEEE TERMINATION  DATE 14 12 2022 TIME 13:11:35.2
NODE    0 CPU TIME =    138030.421
    TOTAL CPU TIME =   5534133.956
