  42  42   0   0
  0.1274400E+02  0.9446644E-09  0.9446644E-09  0.6925793E-09  0.2000000E-15
  1.000000000000000E-004
  CAR 
 unknown system                          
     13.54171807    -20.61911984  301      2.09783737      1.00000000
    -20.619  0.0000E+00  0.0000E+00
    -20.505  0.0000E+00  0.0000E+00
    -20.391  0.0000E+00  0.0000E+00
    -20.278  0.0000E+00  0.0000E+00
    -20.164  0.0000E+00  0.0000E+00
    -20.050  0.0000E+00  0.0000E+00
    -19.936  0.0000E+00  0.0000E+00
    -19.822  0.0000E+00  0.0000E+00
    -19.708  0.0000E+00  0.0000E+00
    -19.594  0.0000E+00  0.0000E+00
    -19.480  0.0000E+00  0.0000E+00
    -19.367  0.0000E+00  0.0000E+00
    -19.253  0.0000E+00  0.0000E+00
    -19.139  0.0000E+00  0.0000E+00
    -19.025  0.0000E+00  0.4000E+01
    -18.911  0.0000E+00  0.4000E+01
    -18.797  0.0000E+00  0.4000E+01
    -18.683  0.0000E+00  0.4000E+01
    -18.569  0.0000E+00  0.4000E+01
    -18.456  0.0000E+00  0.4000E+01
    -18.342  0.0000E+00  0.4000E+01
    -18.228  0.0000E+00  0.4000E+01
    -18.114  0.1591E+03  0.5435E+01
    -18.000  0.5350E+01  0.1196E+02
    -17.886  0.1321E+02  0.1508E+02
    -17.772  0.0000E+00  0.1600E+02
    -17.659  0.0000E+00  0.1600E+02
    -17.545  0.0000E+00  0.1600E+02
    -17.431  0.0000E+00  0.1600E+02
    -17.317  0.6141E+00  0.1600E+02
    -17.203  0.1894E+02  0.1677E+02
    -17.089  0.3418E+02  0.1912E+02
    -16.975  0.3531E+02  0.2326E+02
    -16.861  0.5665E+02  0.3050E+02
    -16.748  0.3126E+02  0.3936E+02
    -16.634  0.9918E+02  0.5288E+02
    -16.520  0.5341E+02  0.6290E+02
    -16.406  0.7902E+02  0.6970E+02
    -16.292  0.4120E+01  0.7206E+02
    -16.178  0.0000E+00  0.7600E+02
    -16.064  0.0000E+00  0.7600E+02
    -15.950  0.0000E+00  0.7600E+02
    -15.837  0.0000E+00  0.7600E+02
    -15.723  0.0000E+00  0.7600E+02
    -15.609  0.0000E+00  0.7600E+02
    -15.495  0.0000E+00  0.7600E+02
    -15.381  0.0000E+00  0.7600E+02
    -15.267  0.9665E+01  0.7691E+02
    -15.153  0.6586E+02  0.8125E+02
    -15.040  0.3229E+01  0.8798E+02
    -14.926  0.3754E+02  0.9686E+02
    -14.812  0.2420E+02  0.1074E+03
    -14.698  0.1540E+02  0.1118E+03
    -14.584  0.0000E+00  0.1120E+03
    -14.470  0.0000E+00  0.1120E+03
    -14.356  0.0000E+00  0.1120E+03
    -14.242  0.0000E+00  0.1120E+03
    -14.129  0.0000E+00  0.1120E+03
    -14.015  0.0000E+00  0.1120E+03
    -13.901  0.0000E+00  0.1120E+03
    -13.787  0.0000E+00  0.1120E+03
    -13.673  0.0000E+00  0.1120E+03
    -13.559  0.0000E+00  0.1120E+03
    -13.445  0.0000E+00  0.1120E+03
    -13.331  0.0000E+00  0.1120E+03
    -13.218  0.0000E+00  0.1120E+03
    -13.104  0.0000E+00  0.1120E+03
    -12.990  0.0000E+00  0.1120E+03
    -12.876  0.0000E+00  0.1120E+03
    -12.762  0.0000E+00  0.1120E+03
    -12.648  0.0000E+00  0.1120E+03
    -12.534  0.0000E+00  0.1120E+03
    -12.421  0.0000E+00  0.1120E+03
    -12.307  0.0000E+00  0.1120E+03
    -12.193  0.0000E+00  0.1120E+03
    -12.079  0.0000E+00  0.1120E+03
    -11.965  0.0000E+00  0.1120E+03
    -11.851  0.0000E+00  0.1120E+03
    -11.737  0.0000E+00  0.1120E+03
    -11.623  0.0000E+00  0.1120E+03
    -11.510  0.0000E+00  0.1120E+03
    -11.396  0.0000E+00  0.1120E+03
    -11.282  0.0000E+00  0.1120E+03
    -11.168  0.0000E+00  0.1120E+03
    -11.054  0.0000E+00  0.1120E+03
    -10.940  0.0000E+00  0.1120E+03
    -10.826  0.0000E+00  0.1120E+03
    -10.712  0.0000E+00  0.1120E+03
    -10.599  0.0000E+00  0.1120E+03
    -10.485  0.0000E+00  0.1120E+03
    -10.371  0.0000E+00  0.1120E+03
    -10.257  0.0000E+00  0.1120E+03
    -10.143  0.0000E+00  0.1120E+03
    -10.029  0.0000E+00  0.1120E+03
     -9.915  0.0000E+00  0.1120E+03
     -9.802  0.0000E+00  0.1120E+03
     -9.688  0.0000E+00  0.1120E+03
     -9.574  0.0000E+00  0.1120E+03
     -9.460  0.0000E+00  0.1120E+03
     -9.346  0.0000E+00  0.1120E+03
     -9.232  0.0000E+00  0.1120E+03
     -9.118  0.0000E+00  0.1120E+03
     -9.004  0.0000E+00  0.1120E+03
     -8.891  0.0000E+00  0.1120E+03
     -8.777  0.0000E+00  0.1120E+03
     -8.663  0.0000E+00  0.1120E+03
     -8.549  0.0000E+00  0.1120E+03
     -8.435  0.0000E+00  0.1120E+03
     -8.321  0.0000E+00  0.1120E+03
     -8.207  0.0000E+00  0.1120E+03
     -8.093  0.0000E+00  0.1120E+03
     -7.980  0.0000E+00  0.1120E+03
     -7.866  0.0000E+00  0.1120E+03
     -7.752  0.0000E+00  0.1120E+03
     -7.638  0.0000E+00  0.1120E+03
     -7.524  0.0000E+00  0.1120E+03
     -7.410  0.0000E+00  0.1120E+03
     -7.296  0.0000E+00  0.1120E+03
     -7.183  0.0000E+00  0.1120E+03
     -7.069  0.0000E+00  0.1120E+03
     -6.955  0.0000E+00  0.1120E+03
     -6.841  0.0000E+00  0.1120E+03
     -6.727  0.0000E+00  0.1120E+03
     -6.613  0.0000E+00  0.1120E+03
     -6.499  0.0000E+00  0.1120E+03
     -6.385  0.0000E+00  0.1120E+03
     -6.272  0.0000E+00  0.1120E+03
     -6.158  0.0000E+00  0.1120E+03
     -6.044  0.0000E+00  0.1120E+03
     -5.930  0.0000E+00  0.1120E+03
     -5.816  0.0000E+00  0.1120E+03
     -5.702  0.0000E+00  0.1120E+03
     -5.588  0.0000E+00  0.1120E+03
     -5.474  0.0000E+00  0.1120E+03
     -5.361  0.0000E+00  0.1120E+03
     -5.247  0.0000E+00  0.1120E+03
     -5.133  0.0000E+00  0.1120E+03
     -5.019  0.5275E+01  0.1122E+03
     -4.905  0.6950E+01  0.1132E+03
     -4.791  0.2411E+02  0.1151E+03
     -4.677  0.3275E+02  0.1178E+03
     -4.564  0.1789E+02  0.1227E+03
     -4.450  0.0000E+00  0.1240E+03
     -4.336  0.0000E+00  0.1240E+03
     -4.222  0.0000E+00  0.1240E+03
     -4.108  0.0000E+00  0.1240E+03
     -3.994  0.0000E+00  0.1240E+03
     -3.880  0.0000E+00  0.1240E+03
     -3.766  0.0000E+00  0.1240E+03
     -3.653  0.0000E+00  0.1240E+03
     -3.539  0.0000E+00  0.1240E+03
     -3.425  0.0000E+00  0.1240E+03
     -3.311  0.0000E+00  0.1240E+03
     -3.197  0.0000E+00  0.1240E+03
     -3.083  0.1054E+02  0.1242E+03
     -2.969  0.1905E+02  0.1269E+03
     -2.855  0.6770E+01  0.1280E+03
     -2.742  0.5830E+02  0.1315E+03
     -2.628  0.2145E+02  0.1365E+03
     -2.514  0.2807E+02  0.1398E+03
     -2.400  0.2689E+02  0.1438E+03
     -2.286  0.3487E+02  0.1490E+03
     -2.172  0.4933E+02  0.1541E+03
     -2.058  0.0000E+00  0.1600E+03
     -1.945  0.0000E+00  0.1600E+03
     -1.831  0.0000E+00  0.1600E+03
     -1.717  0.0000E+00  0.1600E+03
     -1.603  0.0000E+00  0.1600E+03
     -1.489  0.0000E+00  0.1600E+03
     -1.375  0.0000E+00  0.1600E+03
     -1.261  0.0000E+00  0.1600E+03
     -1.147  0.0000E+00  0.1600E+03
     -1.034  0.0000E+00  0.1600E+03
     -0.920  0.9389E+02  0.1611E+03
     -0.806  0.1454E+02  0.1641E+03
     -0.692  0.5207E+02  0.1697E+03
     -0.578  0.3128E+02  0.1724E+03
     -0.464  0.2882E+02  0.1774E+03
     -0.350  0.3400E+02  0.1824E+03
     -0.236  0.5577E+02  0.1889E+03
     -0.123  0.5673E+02  0.1943E+03
     -0.009  0.4344E+02  0.2014E+03
      0.105  0.3381E+02  0.2056E+03
      0.219  0.4300E+02  0.2085E+03
      0.333  0.2147E+02  0.2130E+03
      0.447  0.9668E+02  0.2182E+03
      0.561  0.3342E+02  0.2233E+03
      0.674  0.2988E+02  0.2268E+03
      0.788  0.2773E+02  0.2300E+03
      0.902  0.2062E+01  0.2320E+03
      1.016  0.0000E+00  0.2320E+03
      1.130  0.0000E+00  0.2320E+03
      1.244  0.0000E+00  0.2320E+03
      1.358  0.5987E+02  0.2360E+03
      1.472  0.2970E+02  0.2423E+03
      1.585  0.3558E+02  0.2479E+03
      1.699  0.2816E+02  0.2539E+03
      1.813  0.3776E+02  0.2598E+03
      1.927  0.1284E+02  0.2629E+03
      2.041  0.1979E+02  0.2670E+03
      2.155  0.0000E+00  0.2680E+03
      2.269  0.0000E+00  0.2680E+03
      2.383  0.0000E+00  0.2680E+03
      2.496  0.0000E+00  0.2680E+03
      2.610  0.0000E+00  0.2680E+03
      2.724  0.0000E+00  0.2680E+03
      2.838  0.0000E+00  0.2680E+03
      2.952  0.0000E+00  0.2680E+03
      3.066  0.0000E+00  0.2680E+03
      3.180  0.0000E+00  0.2680E+03
      3.293  0.0000E+00  0.2680E+03
      3.407  0.0000E+00  0.2680E+03
      3.521  0.0000E+00  0.2680E+03
      3.635  0.0000E+00  0.2680E+03
      3.749  0.0000E+00  0.2680E+03
      3.863  0.0000E+00  0.2680E+03
      3.977  0.0000E+00  0.2680E+03
      4.091  0.0000E+00  0.2680E+03
      4.204  0.0000E+00  0.2680E+03
      4.318  0.0000E+00  0.2680E+03
      4.432  0.0000E+00  0.2680E+03
      4.546  0.0000E+00  0.2680E+03
      4.660  0.0000E+00  0.2680E+03
      4.774  0.0000E+00  0.2680E+03
      4.888  0.0000E+00  0.2680E+03
      5.002  0.0000E+00  0.2680E+03
      5.115  0.0000E+00  0.2680E+03
      5.229  0.0000E+00  0.2680E+03
      5.343  0.0000E+00  0.2680E+03
      5.457  0.0000E+00  0.2680E+03
      5.571  0.0000E+00  0.2680E+03
      5.685  0.0000E+00  0.2680E+03
      5.799  0.0000E+00  0.2680E+03
      5.912  0.0000E+00  0.2680E+03
      6.026  0.0000E+00  0.2680E+03
      6.140  0.0000E+00  0.2680E+03
      6.254  0.0000E+00  0.2680E+03
      6.368  0.0000E+00  0.2680E+03
      6.482  0.0000E+00  0.2680E+03
      6.596  0.0000E+00  0.2680E+03
      6.710  0.0000E+00  0.2680E+03
      6.823  0.0000E+00  0.2680E+03
      6.937  0.0000E+00  0.2680E+03
      7.051  0.0000E+00  0.2680E+03
      7.165  0.0000E+00  0.2680E+03
      7.279  0.0000E+00  0.2680E+03
      7.393  0.0000E+00  0.2680E+03
      7.507  0.0000E+00  0.2680E+03
      7.621  0.0000E+00  0.2680E+03
      7.734  0.6966E-01  0.2680E+03
      7.848  0.3958E+00  0.2680E+03
      7.962  0.9013E+00  0.2681E+03
      8.076  0.1267E+01  0.2682E+03
      8.190  0.1732E+01  0.2684E+03
      8.304  0.3487E+01  0.2687E+03
      8.418  0.9267E+01  0.2693E+03
      8.531  0.5308E+01  0.2702E+03
      8.645  0.5981E+01  0.2708E+03
      8.759  0.3065E+02  0.2731E+03
      8.873  0.1692E+02  0.2756E+03
      8.987  0.2079E+02  0.2785E+03
      9.101  0.2092E+02  0.2806E+03
      9.215  0.8032E+02  0.2832E+03
      9.329  0.6218E+02  0.2889E+03
      9.442  0.4103E+02  0.2947E+03
      9.556  0.2952E+02  0.3001E+03
      9.670  0.1885E+02  0.3049E+03
      9.784  0.6501E+02  0.3121E+03
      9.898  0.4213E+02  0.3177E+03
     10.012  0.4580E+02  0.3241E+03
     10.126  0.1083E+02  0.3269E+03
     10.240  0.3564E+02  0.3312E+03
     10.353  0.3435E+02  0.3377E+03
     10.467  0.9318E+02  0.3436E+03
     10.581  0.2751E+02  0.3491E+03
     10.695  0.5839E+02  0.3542E+03
     10.809  0.9128E+02  0.3594E+03
     10.923  0.2634E+02  0.3637E+03
     11.037  0.2011E+02  0.3659E+03
     11.150  0.1908E+02  0.3693E+03
     11.264  0.4167E+02  0.3717E+03
     11.378  0.1831E+02  0.3743E+03
     11.492  0.1510E+02  0.3765E+03
     11.606  0.1024E+02  0.3780E+03
     11.720  0.1448E+02  0.3793E+03
     11.834  0.2235E+02  0.3816E+03
     11.948  0.1816E+02  0.3837E+03
     12.061  0.0000E+00  0.3840E+03
     12.175  0.0000E+00  0.3840E+03
     12.289  0.0000E+00  0.3840E+03
     12.403  0.0000E+00  0.3840E+03
     12.517  0.0000E+00  0.3840E+03
     12.631  0.0000E+00  0.3840E+03
     12.745  0.0000E+00  0.3840E+03
     12.859  0.0000E+00  0.3840E+03
     12.972  0.0000E+00  0.3840E+03
     13.086  0.0000E+00  0.3840E+03
     13.200  0.0000E+00  0.3840E+03
     13.314  0.0000E+00  0.3840E+03
     13.428  0.0000E+00  0.3840E+03
     13.542  0.0000E+00  0.3840E+03
