<?xml version="1.0" encoding="ISO-8859-1"?>
<modeling>
 <generator>
  <i name="program" type="string">vasp </i>
  <i name="version" type="string">5.3.5  </i>
  <i name="subversion" type="string">31Mar14 (build Feb 24 2015 19:11:07) complex                          parallel </i>
  <i name="platform" type="string">LinuxIFC </i>
  <i name="date" type="string">2015 08 16 </i>
  <i name="time" type="string">15:56:59 </i>
 </generator>
 <incar>
  <i type="int" name="ISTART">     1</i>
  <i type="string" name="PREC">accurate</i>
  <i type="int" name="NELMIN">     4</i>
  <i type="int" name="IBRION">     8</i>
  <i name="EDIFF">      0.00000500</i>
  <i type="int" name="NSW">     1</i>
  <i type="int" name="ISIF">     3</i>
  <i name="ENCUT">    600.00000000</i>
  <i name="POTIM">      0.20000000</i>
  <i type="logical" name="LREAL"> F  </i>
  <i type="logical" name="LPLANE"> T  </i>
  <i type="int" name="ISMEAR">    -5</i>
  <i name="SIGMA">      0.05000000</i>
  <i type="logical" name="LSCALU"> T  </i>
  <i type="logical" name="LEPSILON"> T  </i>
  <i type="logical" name="LRPA"> F  </i>
 </incar>
 <kpoints>
  <generation param="Gamma">
   <v type="int" name="divisions">       4        4        5 </v>
   <v name="usershift">      0.00000000       0.00000000       0.00000000 </v>
   <v name="genvec1">      0.25000000      -0.00000000       0.00000000 </v>
   <v name="genvec2">      0.00000000       0.25000000       0.00000000 </v>
   <v name="genvec3">      0.00000000       0.00000000       0.20000000 </v>
   <v name="shift">      0.00000000       0.00000000       0.00000000 </v>
  </generation>
  <varray name="kpointlist" >
   <v>       0.00000000       0.00000000       0.00000000 </v>
   <v>       0.25000000       0.00000000       0.00000000 </v>
   <v>       0.50000000       0.00000000       0.00000000 </v>
   <v>       0.25000000       0.25000000       0.00000000 </v>
   <v>       0.00000000       0.00000000       0.20000000 </v>
   <v>       0.25000000       0.00000000       0.20000000 </v>
   <v>       0.50000000       0.00000000       0.20000000 </v>
   <v>       0.25000000       0.25000000       0.20000000 </v>
   <v>       0.00000000       0.00000000       0.40000000 </v>
   <v>       0.25000000       0.00000000       0.40000000 </v>
   <v>       0.50000000       0.00000000       0.40000000 </v>
   <v>       0.25000000       0.25000000       0.40000000 </v>
  </varray>
  <varray name="weights" >
   <v>       0.01250000 </v>
   <v>       0.07500000 </v>
   <v>       0.03750000 </v>
   <v>       0.07500000 </v>
   <v>       0.02500000 </v>
   <v>       0.15000000 </v>
   <v>       0.07500000 </v>
   <v>       0.15000000 </v>
   <v>       0.02500000 </v>
   <v>       0.15000000 </v>
   <v>       0.07500000 </v>
   <v>       0.15000000 </v>
  </varray>
  <varray name="tetrahedronlist"  type="int" >
   <v type="int" >        8        1        2        2        6 </v>
   <v type="int" >        8        2        2        4        6 </v>
   <v type="int" >        4        2        4        6        8 </v>
   <v type="int" >        4        1        2        5        6 </v>
   <v type="int" >        8        2        5        6        6 </v>
   <v type="int" >        8        2        6        6        8 </v>
   <v type="int" >        8        2        3        4        7 </v>
   <v type="int" >        4        3        4        4        7 </v>
   <v type="int" >        4        4        4        7        8 </v>
   <v type="int" >        4        2        4        6        7 </v>
   <v type="int" >        8        4        6        7        8 </v>
   <v type="int" >        8        4        7        8        8 </v>
   <v type="int" >        8        2        3        4        6 </v>
   <v type="int" >        4        2        4        6        6 </v>
   <v type="int" >        4        3        4        6        7 </v>
   <v type="int" >        4        4        6        6        8 </v>
   <v type="int" >        4        1        2        2        5 </v>
   <v type="int" >        4        2        2        5        6 </v>
   <v type="int" >        8        2        3        4        8 </v>
   <v type="int" >        8        3        4        4        8 </v>
   <v type="int" >        4        3        4        8        8 </v>
   <v type="int" >        4        2        3        6        8 </v>
   <v type="int" >        8        3        6        7        8 </v>
   <v type="int" >        4        3        7        8        8 </v>
   <v type="int" >        4        4        4        4        8 </v>
   <v type="int" >        4        3        4        7        8 </v>
   <v type="int" >        4        4        4        8        8 </v>
   <v type="int" >        4        4        8        8        8 </v>
   <v type="int" >        4        3        4        6        8 </v>
   <v type="int" >        4        2        2        4        8 </v>
   <v type="int" >        4        2        2        6        8 </v>
   <v type="int" >        4        2        3        7        8 </v>
   <v type="int" >        8        2        6        7        8 </v>
   <v type="int" >        4        2        4        7        8 </v>
   <v type="int" >        4        1        2        6        6 </v>
   <v type="int" >        4        1        5        6        6 </v>
   <v type="int" >        8        5        6        6       10 </v>
   <v type="int" >        8        6        6        8       10 </v>
   <v type="int" >        4        6        8       10       12 </v>
   <v type="int" >        4        5        6        9       10 </v>
   <v type="int" >        8        6        9       10       10 </v>
   <v type="int" >        8        6       10       10       12 </v>
   <v type="int" >        8        6        7        8       11 </v>
   <v type="int" >        4        7        8        8       11 </v>
   <v type="int" >        4        8        8       11       12 </v>
   <v type="int" >        4        6        8       10       11 </v>
   <v type="int" >        8        8       10       11       12 </v>
   <v type="int" >        8        8       11       12       12 </v>
   <v type="int" >        8        6        7        8       10 </v>
   <v type="int" >        4        6        8       10       10 </v>
   <v type="int" >        4        7        8       10       11 </v>
   <v type="int" >        4        8       10       10       12 </v>
   <v type="int" >        4        5        6        6        9 </v>
   <v type="int" >        4        6        6        9       10 </v>
   <v type="int" >        8        6        7        8       12 </v>
   <v type="int" >        8        7        8        8       12 </v>
   <v type="int" >        4        7        8       12       12 </v>
   <v type="int" >        4        6        7       10       12 </v>
   <v type="int" >        8        7       10       11       12 </v>
   <v type="int" >        4        7       11       12       12 </v>
   <v type="int" >        4        8        8        8       12 </v>
   <v type="int" >        4        7        8       11       12 </v>
   <v type="int" >        4        8        8       12       12 </v>
   <v type="int" >        4        8       12       12       12 </v>
   <v type="int" >        4        7        8       10       12 </v>
   <v type="int" >        4        6        6        8       12 </v>
   <v type="int" >        4        6        6       10       12 </v>
   <v type="int" >        4        6        7       11       12 </v>
   <v type="int" >        8        6       10       11       12 </v>
   <v type="int" >        4        6        8       11       12 </v>
   <v type="int" >        4        5        6       10       10 </v>
   <v type="int" >        4        5        9       10       10 </v>
   <v type="int" >       12        9       10       10       10 </v>
   <v type="int" >       12       10       10       10       12 </v>
   <v type="int" >        6       10       10       12       12 </v>
   <v type="int" >        6        9        9       10       10 </v>
   <v type="int" >       12       10       11       11       12 </v>
   <v type="int" >        6       11       11       12       12 </v>
   <v type="int" >       12       11       12       12       12 </v>
   <v type="int" >       12       10       10       11       12 </v>
   <v type="int" >       12       10       11       12       12 </v>
   <v type="int" >        6       12       12       12       12 </v>
  </varray>
  <i name="volumeweight">      0.00208333 </i>
 </kpoints>
 <parameters>
  <separator name="general" >
   <i type="string" name="SYSTEM">unknown system</i>
   <i type="logical" name="LCOMPAT"> F  </i>
  </separator>
  <separator name="electronic" >
   <i type="string" name="PREC">accura</i>
   <i name="ENMAX">    600.00000000</i>
   <i name="ENAUG">    613.61400000</i>
   <i name="EDIFF">      0.00000500</i>
   <i type="int" name="IALGO">    38</i>
   <i type="int" name="IWAVPR">    11</i>
   <i type="int" name="NBANDS">   192</i>
   <i name="NELECT">    268.00000000</i>
   <i type="int" name="TURBO">     0</i>
   <i type="int" name="IRESTART">     0</i>
   <i type="int" name="NREBOOT">     0</i>
   <i type="int" name="NMIN">     0</i>
   <i name="EREF">      0.00000000</i>
   <separator name="electronic smearing" >
    <i type="int" name="ISMEAR">    -5</i>
    <i name="SIGMA">      0.05000000</i>
    <i name="KSPACING">      0.50000000</i>
    <i type="logical" name="KGAMMA"> T  </i>
   </separator>
   <separator name="electronic projectors" >
    <i type="logical" name="LREAL"> F  </i>
    <v name="ROPT">      0.00000000      0.00000000      0.00000000      0.00000000</v>
    <i type="int" name="LMAXPAW">  -100</i>
    <i type="int" name="LMAXMIX">     2</i>
    <i type="logical" name="NLSPLINE"> F  </i>
   </separator>
   <separator name="electronic startup" >
    <i type="int" name="ISTART">     0</i>
    <i type="int" name="ICHARG">     2</i>
    <i type="int" name="INIWAV">     1</i>
   </separator>
   <separator name="electronic spin" >
    <i type="int" name="ISPIN">     1</i>
    <i type="logical" name="LNONCOLLINEAR"> F  </i>
    <v name="MAGMOM">      1.00000000      1.00000000      1.00000000      1.00000000      1.00000000      1.00000000      1.00000000      1.00000000      1.00000000      1.00000000      1.00000000      1.00000000      1.00000000      1.00000000      1.00000000      1.00000000      1.00000000      1.00000000      1.00000000      1.00000000
      1.00000000      1.00000000      1.00000000      1.00000000      1.00000000      1.00000000      1.00000000      1.00000000      1.00000000      1.00000000      1.00000000      1.00000000      1.00000000      1.00000000      1.00000000      1.00000000      1.00000000      1.00000000      1.00000000      1.00000000
      1.00000000      1.00000000</v>
    <i name="NUPDOWN">     -1.00000000</i>
    <i type="logical" name="LSORBIT"> F  </i>
    <v name="SAXIS">      0.00000000      0.00000000      1.00000000</v>
    <i type="logical" name="LSPIRAL"> F  </i>
    <v name="QSPIRAL">      0.00000000      0.00000000      0.00000000</v>
    <i type="logical" name="LZEROZ"> F  </i>
   </separator>
   <separator name="electronic exchange-correlation" >
    <i type="logical" name="LASPH"> F  </i>
    <i type="logical" name="LMETAGGA"> F  </i>
   </separator>
   <separator name="electronic convergence" >
    <i type="int" name="NELM">    60</i>
    <i type="int" name="NELMDL">     0</i>
    <i type="int" name="NELMIN">     4</i>
    <i name="ENINI">    600.00000000</i>
    <separator name="electronic convergence detail" >
     <i type="logical" name="LDIAG"> T  </i>
     <i type="logical" name="LSUBROT"> F  </i>
     <i name="WEIMIN">      0.00100000</i>
     <i name="EBREAK">      0.00000001</i>
     <i name="DEPER">      0.30000000</i>
     <i type="int" name="NRMM">     4</i>
     <i name="TIME">      0.40000000</i>
    </separator>
   </separator>
   <separator name="electronic mixer" >
    <i name="AMIX">      0.40000000</i>
    <i name="BMIX">      1.00000000</i>
    <i name="AMIN">      0.10000000</i>
    <i name="AMIX_MAG">      1.60000000</i>
    <i name="BMIX_MAG">      1.00000000</i>
    <separator name="electronic mixer details" >
     <i type="int" name="IMIX">     4</i>
     <i type="int" name="MAXMIX">   -45</i>
     <i name="WC">    100.00000000</i>
     <i type="int" name="INIMIX">     1</i>
     <i type="int" name="MIXPRE">     1</i>
     <i type="int" name="MREMOVE">     5</i>
    </separator>
   </separator>
   <separator name="electronic dipolcorrection" >
    <i type="logical" name="LDIPOL"> F  </i>
    <i type="logical" name="LMONO"> F  </i>
    <i type="int" name="IDIPOL">     0</i>
    <i name="EPSILON">      1.00000000</i>
    <v name="DIPOL">   -100.00000000   -100.00000000   -100.00000000</v>
    <i name="EFIELD">      0.00000000</i>
   </separator>
  </separator>
  <separator name="grids" >
   <i type="int" name="NGX">    80</i>
   <i type="int" name="NGY">    80</i>
   <i type="int" name="NGZ">    56</i>
   <i type="int" name="NGXF">   160</i>
   <i type="int" name="NGYF">   160</i>
   <i type="int" name="NGZF">   112</i>
   <i type="logical" name="ADDGRID"> F  </i>
  </separator>
  <separator name="ionic" >
   <i type="int" name="NSW">     1</i>
   <i type="int" name="IBRION">     8</i>
   <i type="int" name="ISIF">     3</i>
   <i name="PSTRESS">      0.00000000</i>
   <i name="EDIFFG">      0.00005000</i>
   <i type="int" name="NFREE">     0</i>
   <i name="POTIM">      0.20000000</i>
   <i name="SMASS">     -3.00000000</i>
   <i name="SCALEE">      1.00000000</i>
  </separator>
  <separator name="ionic md" >
   <i name="TEBEG">      0.00010000</i>
   <i name="TEEND">      0.00010000</i>
   <i type="int" name="NBLOCK">     1</i>
   <i type="int" name="KBLOCK">     1</i>
   <i type="int" name="NPACO">   256</i>
   <i name="APACO">     16.00000000</i>
  </separator>
  <separator name="symmetry" >
   <i type="int" name="ISYM">     2</i>
   <i name="SYMPREC">      0.00001000</i>
  </separator>
  <separator name="dos" >
   <i type="logical" name="LORBIT"> F  </i>
   <v name="RWIGS">     -1.00000000     -1.00000000     -1.00000000     -1.00000000</v>
   <i type="int" name="NEDOS">   301</i>
   <i name="EMIN">     10.00000000</i>
   <i name="EMAX">    -10.00000000</i>
   <i name="EFERMI">      0.00000000</i>
  </separator>
  <separator name="writing" >
   <i type="int" name="NWRITE">     2</i>
   <i type="logical" name="LWAVE"> T  </i>
   <i type="logical" name="LCHARG"> T  </i>
   <i type="logical" name="LPARD"> F  </i>
   <i type="logical" name="LVTOT"> F  </i>
   <i type="logical" name="LVHAR"> F  </i>
   <i type="logical" name="LELF"> F  </i>
   <i type="logical" name="LOPTICS"> F  </i>
   <v name="STM">      0.00000000      0.00000000      0.00000000      0.00000000      0.00000000      0.00000000      0.00000000</v>
  </separator>
  <separator name="performance" >
   <i type="int" name="NPAR">    64</i>
   <i type="int" name="NSIM">     4</i>
   <i type="int" name="NBLK">    -1</i>
   <i type="logical" name="LPLANE"> T  </i>
   <i type="logical" name="LSCALAPACK"> T  </i>
   <i type="logical" name="LSCAAWARE"> F  </i>
   <i type="logical" name="LSCALU"> T  </i>
   <i type="logical" name="LASYNC"> F  </i>
   <i type="logical" name="LORBITALREAL"> F  </i>
  </separator>
  <separator name="miscellaneous" >
   <i type="int" name="IDIOT">     3</i>
   <i type="logical" name="LMUSIC"> F  </i>
   <v name="POMASS">     16.00000000     30.97400000     40.07800000     18.99800000</v>
   <v name="DARWINR">      0.00000000      0.00000000      0.00000000      0.00000000</v>
   <v name="DARWINV">      1.00000000      1.00000000      1.00000000      1.00000000</v>
   <i type="logical" name="LCORR"> T  </i>
  </separator>
  <i type="logical" name="GGA_COMPAT"> T  </i>
  <i type="logical" name="LBERRY"> F  </i>
  <i type="int" name="ICORELEVEL">     0</i>
  <i type="logical" name="LDAU"> F  </i>
  <i type="int" name="I_CONSTRAINED_M">     0</i>
  <separator name="electronic exchange-correlation" >
   <i type="string" name="GGA">--</i>
   <i type="int" name="VOSKOWN">     0</i>
   <i type="logical" name="LHFCALC"> F  </i>
   <i type="string" name="PRECFOCK"></i>
   <i type="logical" name="LSYMGRAD"> F  </i>
   <i type="logical" name="LHFONE"> F  </i>
   <i type="logical" name="LRHFCALC"> F  </i>
   <i type="logical" name="LTHOMAS"> F  </i>
   <i type="logical" name="LMODELHF"> F  </i>
   <i name="ENCUT4O">     -1.00000000</i>
   <i type="int" name="EXXOEP">     0</i>
   <i type="int" name="FOURORBIT">     0</i>
   <i name="AEXX">      0.00000000</i>
   <i name="HFALPHA">      0.00000000</i>
   <i name="MCALPHA">      0.00000000</i>
   <i name="ALDAX">      1.00000000</i>
   <i name="AGGAX">      1.00000000</i>
   <i name="ALDAC">      1.00000000</i>
   <i name="AGGAC">      1.00000000</i>
   <i type="int" name="NKREDX">     1</i>
   <i type="int" name="NKREDY">     1</i>
   <i type="int" name="NKREDZ">     1</i>
   <i type="logical" name="SHIFTRED"> F  </i>
   <i type="logical" name="ODDONLY"> F  </i>
   <i type="logical" name="EVENONLY"> F  </i>
   <i type="int" name="LMAXFOCK">     0</i>
   <i type="int" name="NMAXFOCKAE">     0</i>
   <i type="logical" name="LFOCKAEDFT"> F  </i>
   <i name="HFSCREEN">      0.00000000</i>
   <i name="HFSCREENC">      0.00000000</i>
   <i type="int" name="NBANDSGWLOW">     0</i>
  </separator>
  <separator name="vdW DFT" >
   <i type="logical" name="LUSE_VDW"> F  </i>
   <i name="Zab_VDW">     -0.84910000</i>
   <i name="PARAM1">      0.12340000</i>
   <i name="PARAM2">      1.00000000</i>
   <i name="PARAM3">      0.00000000</i>
  </separator>
  <separator name="model GW" >
   <i type="int" name="MODEL_GW">     0</i>
   <i name="MODEL_EPS0">      7.64640289</i>
   <i name="MODEL_ALPHA">      1.00000000</i>
  </separator>
  <separator name="linear response parameters" >
   <i type="logical" name="LEPSILON"> T  </i>
   <i type="logical" name="LRPA"> F  </i>
   <i type="logical" name="LNABLA"> F  </i>
   <i type="logical" name="LVEL"> F  </i>
   <i type="int" name="KINTER">     0</i>
   <i name="CSHIFT">      0.10000000</i>
   <i name="OMEGAMAX">     -1.00000000</i>
   <i name="DEG_THRESHOLD">      0.00200000</i>
  </separator>
  <separator name="orbital magnetization" >
   <i type="logical" name="NUCIND"> F  </i>
   <v name="MAGPOS">      0.00000000      0.00000000      0.00000000</v>
   <i type="logical" name="LNICSALL"> T  </i>
   <i type="logical" name="ORBITALMAG"> F  </i>
   <i type="logical" name="LMAGBLOCH"> F  </i>
   <i type="logical" name="LCHIMAG"> F  </i>
   <i type="logical" name="LGAUGE"> T  </i>
   <i type="int" name="MAGATOM">     0</i>
   <v name="MAGDIPOL">      0.00000000      0.00000000      0.00000000</v>
   <v name="AVECCONST">      0.00000000      0.00000000      0.00000000</v>
  </separator>
  <separator name="response functions" >
   <i type="logical" name="LADDER"> T  </i>
   <i type="logical" name="LFXC"> F  </i>
   <i type="logical" name="LHARTREE"> T  </i>
   <i type="int" name="IBSE">     0</i>
   <i type="logical" name="LTCTE"> F  </i>
   <i type="logical" name="LTETE"> F  </i>
   <i type="logical" name="LTRIPLET"> F  </i>
   <i type="logical" name="LFXCEPS"> F  </i>
   <i type="logical" name="LFXHEG"> F  </i>
   <i type="logical" name="L2ORDER"> F  </i>
   <i type="logical" name="LUSEW"> F  </i>
   <i name="ENCUTGW">     -2.00000000</i>
   <i name="ENCUTGWSOFT">     -2.00000000</i>
   <i name="ENCUTLF">     -1.00000000</i>
   <i type="int" name="LMAXMP2">    -1</i>
   <i name="SCISSOR">      0.00000000</i>
   <i type="int" name="NOMEGA">     0</i>
   <i type="int" name="NOMEGAR">     0</i>
   <i type="int" name="NBANDSGW">    -1</i>
   <i type="int" name="NBANDSO">    -1</i>
   <i type="int" name="NBANDSV">    -1</i>
   <i type="int" name="NELM">     1</i>
   <i type="int" name="DIM">     3</i>
   <i type="int" name="ANTIRES">     0</i>
   <i name="OMEGAMAX">    -30.00000000</i>
   <i name="OMEGAMIN">    -30.00000000</i>
   <i name="OMEGATL">   -200.00000000</i>
   <i type="int" name="OMEGAGRID">     0</i>
   <i name="CSHIFT">     -0.10000000</i>
   <i type="logical" name="SELFENERGY"> F  </i>
   <i type="logical" name="LSPECTRAL"> F  </i>
   <i type="logical" name="ODDONLYGW"> F  </i>
   <i type="logical" name="EVENONLYGW"> F  </i>
   <i type="int" name="NKREDLFX">     1</i>
   <i type="int" name="NKREDLFY">     1</i>
   <i type="int" name="NKREDLFZ">     1</i>
   <i type="int" name="MAXMEM">  1800</i>
   <i type="int" name="TELESCOPE">     0</i>
   <i type="int" name="TAUPAR">     1</i>
  </separator>
  <separator name="External order field" >
   <i name="OFIELD_KAPPA">      0.00000000</i>
   <v name="OFIELD_K">      0.00000000      0.00000000      0.00000000</v>
   <i name="OFIELD_Q6_NEAR">      0.00000000</i>
   <i name="OFIELD_Q6_FAR">      0.00000000</i>
   <i name="OFIELD_A">      0.00000000</i>
  </separator>
 </parameters>
 <atominfo>
  <atoms>      42 </atoms>
  <types>       4 </types>
  <array name="atoms" >
   <dimension dim="1">ion</dimension>
   <field type="string">element</field>
   <field type="int">atomtype</field>
   <set>
    <rc><c>O </c><c>   1</c></rc>
    <rc><c>O </c><c>   1</c></rc>
    <rc><c>O </c><c>   1</c></rc>
    <rc><c>O </c><c>   1</c></rc>
    <rc><c>O </c><c>   1</c></rc>
    <rc><c>O </c><c>   1</c></rc>
    <rc><c>O </c><c>   1</c></rc>
    <rc><c>O </c><c>   1</c></rc>
    <rc><c>O </c><c>   1</c></rc>
    <rc><c>O </c><c>   1</c></rc>
    <rc><c>O </c><c>   1</c></rc>
    <rc><c>O </c><c>   1</c></rc>
    <rc><c>O </c><c>   1</c></rc>
    <rc><c>O </c><c>   1</c></rc>
    <rc><c>O </c><c>   1</c></rc>
    <rc><c>O </c><c>   1</c></rc>
    <rc><c>O </c><c>   1</c></rc>
    <rc><c>O </c><c>   1</c></rc>
    <rc><c>O </c><c>   1</c></rc>
    <rc><c>O </c><c>   1</c></rc>
    <rc><c>O </c><c>   1</c></rc>
    <rc><c>O </c><c>   1</c></rc>
    <rc><c>O </c><c>   1</c></rc>
    <rc><c>O </c><c>   1</c></rc>
    <rc><c>P </c><c>   2</c></rc>
    <rc><c>P </c><c>   2</c></rc>
    <rc><c>P </c><c>   2</c></rc>
    <rc><c>P </c><c>   2</c></rc>
    <rc><c>P </c><c>   2</c></rc>
    <rc><c>P </c><c>   2</c></rc>
    <rc><c>Ca</c><c>   3</c></rc>
    <rc><c>Ca</c><c>   3</c></rc>
    <rc><c>Ca</c><c>   3</c></rc>
    <rc><c>Ca</c><c>   3</c></rc>
    <rc><c>Ca</c><c>   3</c></rc>
    <rc><c>Ca</c><c>   3</c></rc>
    <rc><c>Ca</c><c>   3</c></rc>
    <rc><c>Ca</c><c>   3</c></rc>
    <rc><c>Ca</c><c>   3</c></rc>
    <rc><c>Ca</c><c>   3</c></rc>
    <rc><c>F </c><c>   4</c></rc>
    <rc><c>F </c><c>   4</c></rc>
   </set>
  </array>
  <array name="atomtypes" >
   <dimension dim="1">type</dimension>
   <field type="int">atomspertype</field>
   <field type="string">element</field>
   <field>mass</field>
   <field>valence</field>
   <field type="string">pseudopotential</field>
   <set>
    <rc><c>  24</c><c>O </c><c>     16.00000000</c><c>      6.00000000</c><c>  PAW_PBE O 08Apr2002                   </c></rc>
    <rc><c>   6</c><c>P </c><c>     30.97400000</c><c>      5.00000000</c><c>  PAW_PBE P 06Sep2000                   </c></rc>
    <rc><c>  10</c><c>Ca</c><c>     40.07800000</c><c>      8.00000000</c><c>  PAW_PBE Ca_pv 06Sep2000               </c></rc>
    <rc><c>   2</c><c>F </c><c>     18.99800000</c><c>      7.00000000</c><c>  PAW_PBE F 08Apr2002                   </c></rc>
   </set>
  </array>
 </atominfo>
 <structure name="initialpos" >
  <crystal>
   <varray name="basis" >
    <v>       8.18103371      -4.72332201       0.00000000 </v>
    <v>      -0.00000000       9.44664403       0.00000000 </v>
    <v>       0.00000000       0.00000000       6.92579265 </v>
   </varray>
   <i name="volume">    535.24820248 </i>
   <varray name="rec_basis" >
    <v>       0.12223394       0.00000000       0.00000000 </v>
    <v>       0.06111697       0.10585770       0.00000000 </v>
    <v>       0.00000000       0.00000000       0.14438781 </v>
   </varray>
  </crystal>
  <varray name="positions" >
   <v>       0.32639724       0.48473462       0.25000000 </v>
   <v>       0.48473462       0.15833738       0.75000000 </v>
   <v>       0.84166262       0.32639724       0.75000000 </v>
   <v>       0.15833738       0.67360276       0.25000000 </v>
   <v>       0.51526538       0.84166262       0.25000000 </v>
   <v>       0.67360276       0.51526538       0.75000000 </v>
   <v>       0.58834261       0.46645753       0.25000000 </v>
   <v>       0.46645753       0.87811492       0.75000000 </v>
   <v>       0.12188508       0.58834261       0.75000000 </v>
   <v>       0.87811492       0.41165739       0.25000000 </v>
   <v>       0.53354247       0.12188508       0.25000000 </v>
   <v>       0.41165739       0.53354247       0.75000000 </v>
   <v>       0.34060935       0.25578807       0.06968621 </v>
   <v>       0.25578807       0.91517871       0.56968621 </v>
   <v>       0.34060935       0.25578807       0.43031379 </v>
   <v>       0.08482129       0.34060935       0.56968621 </v>
   <v>       0.91517871       0.65939065       0.43031379 </v>
   <v>       0.08482129       0.34060935       0.93031379 </v>
   <v>       0.74421193       0.08482129       0.43031379 </v>
   <v>       0.74421193       0.08482129       0.06968621 </v>
   <v>       0.25578807       0.91517871       0.93031379 </v>
   <v>       0.65939065       0.74421193       0.56968621 </v>
   <v>       0.65939065       0.74421193       0.93031379 </v>
   <v>       0.91517871       0.65939065       0.06968621 </v>
   <v>       0.39768214       0.36841832       0.25000000 </v>
   <v>       0.36841832       0.97073619       0.75000000 </v>
   <v>       0.02926381       0.39768214       0.75000000 </v>
   <v>       0.97073619       0.60231786       0.25000000 </v>
   <v>       0.63158168       0.02926381       0.25000000 </v>
   <v>       0.60231786       0.63158168       0.75000000 </v>
   <v>       0.33333333       0.66666667       0.00080485 </v>
   <v>       0.66666667       0.33333333       0.50080485 </v>
   <v>       0.33333333       0.66666667       0.49919515 </v>
   <v>       0.66666667       0.33333333       0.99919515 </v>
   <v>       0.24336292       0.99625967       0.25000000 </v>
   <v>       0.99625967       0.75289675       0.75000000 </v>
   <v>       0.24710325       0.24336292       0.75000000 </v>
   <v>       0.75289675       0.75663708       0.25000000 </v>
   <v>       0.00374033       0.24710325       0.25000000 </v>
   <v>       0.75663708       0.00374033       0.75000000 </v>
   <v>       0.00000000       0.00000000       0.25000000 </v>
   <v>       0.00000000       0.00000000       0.75000000 </v>
  </varray>
 </structure>
 <calculation>
  <scstep>
   <time name="dav">   33.80   33.85</time>
   <time name="total">   34.20   34.25</time>
   <energy>
    <i name="alphaZ">    826.34372876 </i>
    <i name="ewald"> -14085.94471353 </i>
    <i name="hartreedc">  -4501.21783321 </i>
    <i name="XCdc">    932.91883753 </i>
    <i name="pawpsdc">  14619.75896350 </i>
    <i name="pawaedc"> -14607.30325812 </i>
    <i name="eentropy">      0.00000000 </i>
    <i name="bandstr">   1500.14130350 </i>
    <i name="atom">  18878.86109918 </i>
    <i name="e_fr_energy">   3563.55812761 </i>
    <i name="e_wo_entrp">   3563.55812761 </i>
    <i name="e_0_energy">   3563.55812761 </i>
   </energy>
  </scstep>
  <scstep>
   <time name="dav">   47.45   47.50</time>
   <time name="total">   47.49   47.55</time>
   <energy>
    <i name="e_fr_energy">    223.92894943 </i>
    <i name="e_wo_entrp">    223.92894943 </i>
    <i name="e_0_energy">    223.92894943 </i>
   </energy>
  </scstep>
  <scstep>
   <time name="dav">   40.92   40.92</time>
   <time name="total">   40.94   40.93</time>
   <energy>
    <i name="e_fr_energy">   -304.35768849 </i>
    <i name="e_wo_entrp">   -304.35768849 </i>
    <i name="e_0_energy">   -304.35768849 </i>
   </energy>
  </scstep>
  <scstep>
   <time name="dav">   56.72   56.73</time>
   <time name="total">   56.73   56.74</time>
   <energy>
    <i name="e_fr_energy">   -333.94017448 </i>
    <i name="e_wo_entrp">   -333.94017448 </i>
    <i name="e_0_energy">   -333.94017448 </i>
   </energy>
  </scstep>
  <scstep>
   <time name="dav">   50.31   50.38</time>
   <time name="total">   52.17   52.28</time>
   <energy>
    <i name="e_fr_energy">   -334.41715526 </i>
    <i name="e_wo_entrp">   -334.41715526 </i>
    <i name="e_0_energy">   -334.41715526 </i>
   </energy>
  </scstep>
  <scstep>
   <time name="dav">   52.94   53.09</time>
   <time name="total">   54.79   54.94</time>
   <energy>
    <i name="e_fr_energy">   -299.84315702 </i>
    <i name="e_wo_entrp">   -299.84315702 </i>
    <i name="e_0_energy">   -299.84315702 </i>
   </energy>
  </scstep>
  <scstep>
   <time name="dav">   44.46   44.56</time>
   <time name="total">   46.29   46.39</time>
   <energy>
    <i name="e_fr_energy">   -300.68647809 </i>
    <i name="e_wo_entrp">   -300.68647809 </i>
    <i name="e_0_energy">   -300.68647809 </i>
   </energy>
  </scstep>
  <scstep>
   <time name="dav">   54.21   54.31</time>
   <time name="total">   56.24   56.34</time>
   <energy>
    <i name="e_fr_energy">   -300.71754902 </i>
    <i name="e_wo_entrp">   -300.71754902 </i>
    <i name="e_0_energy">   -300.71754902 </i>
   </energy>
  </scstep>
  <scstep>
   <time name="dav">   53.94   54.17</time>
   <time name="total">   55.44   55.68</time>
   <energy>
    <i name="e_fr_energy">   -300.79218556 </i>
    <i name="e_wo_entrp">   -300.79218556 </i>
    <i name="e_0_energy">   -300.79218556 </i>
   </energy>
  </scstep>
  <scstep>
   <time name="dav">   55.69   56.34</time>
   <time name="total">   57.19   57.84</time>
   <energy>
    <i name="e_fr_energy">   -300.80016718 </i>
    <i name="e_wo_entrp">   -300.80016718 </i>
    <i name="e_0_energy">   -300.80016718 </i>
   </energy>
  </scstep>
  <scstep>
   <time name="dav">   57.85   57.88</time>
   <time name="total">   59.36   59.39</time>
   <energy>
    <i name="e_fr_energy">   -300.80193258 </i>
    <i name="e_wo_entrp">   -300.80193258 </i>
    <i name="e_0_energy">   -300.80193258 </i>
   </energy>
  </scstep>
  <scstep>
   <time name="dav">   54.25   54.48</time>
   <time name="total">   55.72   55.95</time>
   <energy>
    <i name="e_fr_energy">   -300.80237107 </i>
    <i name="e_wo_entrp">   -300.80237107 </i>
    <i name="e_0_energy">   -300.80237107 </i>
   </energy>
  </scstep>
  <scstep>
   <time name="dav">   49.74   49.79</time>
   <time name="total">   51.22   51.27</time>
   <energy>
    <i name="e_fr_energy">   -300.80244784 </i>
    <i name="e_wo_entrp">   -300.80244784 </i>
    <i name="e_0_energy">   -300.80244784 </i>
   </energy>
  </scstep>
  <scstep>
   <time name="dav">   59.17   59.34</time>
   <time name="total">   59.39   59.56</time>
   <energy>
    <i name="alphaZ">    826.34372876 </i>
    <i name="ewald"> -14085.94471353 </i>
    <i name="hartreedc">  -4988.43057688 </i>
    <i name="XCdc">    967.33287128 </i>
    <i name="pawpsdc">  31763.17433094 </i>
    <i name="pawaedc"> -31736.70465108 </i>
    <i name="eentropy">      0.00000000 </i>
    <i name="bandstr">  -1925.43454087 </i>
    <i name="atom">  18878.86109918 </i>
    <i name="e_fr_energy">   -300.80245219 </i>
    <i name="e_wo_entrp">   -300.80245219 </i>
    <i name="e_0_energy">   -300.80245219 </i>
   </energy>
  </scstep>
  <structure>
   <crystal>
    <varray name="basis" >
     <v>       8.18103371      -4.72332201       0.00000000 </v>
     <v>      -0.00000000       9.44664403       0.00000000 </v>
     <v>       0.00000000       0.00000000       6.92579265 </v>
    </varray>
    <i name="volume">    535.24820248 </i>
    <varray name="rec_basis" >
     <v>       0.12223394       0.00000000       0.00000000 </v>
     <v>       0.06111697       0.10585770       0.00000000 </v>
     <v>       0.00000000       0.00000000       0.14438781 </v>
    </varray>
   </crystal>
   <varray name="positions" >
    <v>       0.32639724       0.48473462       0.25000000 </v>
    <v>       0.48473462       0.15833738       0.75000000 </v>
    <v>       0.84166262       0.32639724       0.75000000 </v>
    <v>       0.15833738       0.67360276       0.25000000 </v>
    <v>       0.51526538       0.84166262       0.25000000 </v>
    <v>       0.67360276       0.51526538       0.75000000 </v>
    <v>       0.58834261       0.46645753       0.25000000 </v>
    <v>       0.46645753       0.87811492       0.75000000 </v>
    <v>       0.12188508       0.58834261       0.75000000 </v>
    <v>       0.87811492       0.41165739       0.25000000 </v>
    <v>       0.53354247       0.12188508       0.25000000 </v>
    <v>       0.41165739       0.53354247       0.75000000 </v>
    <v>       0.34060935       0.25578807       0.06968621 </v>
    <v>       0.25578807       0.91517871       0.56968621 </v>
    <v>       0.34060935       0.25578807       0.43031379 </v>
    <v>       0.08482129       0.34060935       0.56968621 </v>
    <v>       0.91517871       0.65939065       0.43031379 </v>
    <v>       0.08482129       0.34060935       0.93031379 </v>
    <v>       0.74421193       0.08482129       0.43031379 </v>
    <v>       0.74421193       0.08482129       0.06968621 </v>
    <v>       0.25578807       0.91517871       0.93031379 </v>
    <v>       0.65939065       0.74421193       0.56968621 </v>
    <v>       0.65939065       0.74421193       0.93031379 </v>
    <v>       0.91517871       0.65939065       0.06968621 </v>
    <v>       0.39768214       0.36841832       0.25000000 </v>
    <v>       0.36841832       0.97073619       0.75000000 </v>
    <v>       0.02926381       0.39768214       0.75000000 </v>
    <v>       0.97073619       0.60231786       0.25000000 </v>
    <v>       0.63158168       0.02926381       0.25000000 </v>
    <v>       0.60231786       0.63158168       0.75000000 </v>
    <v>       0.33333333       0.66666667       0.00080485 </v>
    <v>       0.66666667       0.33333333       0.50080485 </v>
    <v>       0.33333333       0.66666667       0.49919515 </v>
    <v>       0.66666667       0.33333333       0.99919515 </v>
    <v>       0.24336292       0.99625967       0.25000000 </v>
    <v>       0.99625967       0.75289675       0.75000000 </v>
    <v>       0.24710325       0.24336292       0.75000000 </v>
    <v>       0.75289675       0.75663708       0.25000000 </v>
    <v>       0.00374033       0.24710325       0.25000000 </v>
    <v>       0.75663708       0.00374033       0.75000000 </v>
    <v>       0.00000000       0.00000000       0.25000000 </v>
    <v>       0.00000000       0.00000000       0.75000000 </v>
   </varray>
  </structure>
  <varray name="forces" >
   <v>       0.00590029       0.00364577      -0.00000000 </v>
   <v>       0.00610748      -0.00328692      -0.00000000 </v>
   <v>      -0.00020719       0.00693269      -0.00000000 </v>
   <v>       0.00020719      -0.00693269      -0.00000000 </v>
   <v>      -0.00610748       0.00328692      -0.00000000 </v>
   <v>      -0.00590029      -0.00364577      -0.00000000 </v>
   <v>       0.00351362      -0.00710723      -0.00000000 </v>
   <v>      -0.00439824      -0.00659650      -0.00000000 </v>
   <v>       0.00791185      -0.00051074      -0.00000000 </v>
   <v>      -0.00791185       0.00051074      -0.00000000 </v>
   <v>       0.00439824       0.00659650      -0.00000000 </v>
   <v>      -0.00351362       0.00710723      -0.00000000 </v>
   <v>       0.00062892       0.00302482      -0.00044012 </v>
   <v>       0.00293403       0.00096775      -0.00044012 </v>
   <v>       0.00062892       0.00302482       0.00044012 </v>
   <v>      -0.00230511       0.00205707      -0.00044012 </v>
   <v>       0.00230511      -0.00205707       0.00044012 </v>
   <v>      -0.00230511       0.00205707       0.00044012 </v>
   <v>      -0.00293403      -0.00096775       0.00044012 </v>
   <v>      -0.00293403      -0.00096775      -0.00044012 </v>
   <v>       0.00293403       0.00096775       0.00044012 </v>
   <v>      -0.00062892      -0.00302482      -0.00044012 </v>
   <v>      -0.00062892      -0.00302482       0.00044012 </v>
   <v>       0.00230511      -0.00205707      -0.00044012 </v>
   <v>       0.00425890       0.00226995      -0.00000000 </v>
   <v>       0.00409529      -0.00255334      -0.00000000 </v>
   <v>       0.00016361       0.00482329      -0.00000000 </v>
   <v>      -0.00016361      -0.00482329      -0.00000000 </v>
   <v>      -0.00409529       0.00255334      -0.00000000 </v>
   <v>      -0.00425890      -0.00226995      -0.00000000 </v>
   <v>       0.00000000       0.00000000       0.00060113 </v>
   <v>       0.00000000       0.00000000       0.00060113 </v>
   <v>       0.00000000      -0.00000000      -0.00060113 </v>
   <v>       0.00000000      -0.00000000      -0.00060113 </v>
   <v>       0.00428268       0.01503721      -0.00000000 </v>
   <v>       0.01516395       0.00380970      -0.00000000 </v>
   <v>      -0.01088127       0.01122752      -0.00000000 </v>
   <v>       0.01088127      -0.01122752      -0.00000000 </v>
   <v>      -0.01516395      -0.00380970      -0.00000000 </v>
   <v>      -0.00428268      -0.01503721      -0.00000000 </v>
   <v>       0.00000000      -0.00000000      -0.00000000 </v>
   <v>       0.00000000       0.00000000      -0.00000000 </v>
  </varray>
  <varray name="stress" >
   <v>       3.82492692      -0.00000013       0.00000000 </v>
   <v>       0.00000013       3.82492692       0.00000000 </v>
   <v>       0.00000000       0.00000000       0.25803505 </v>
  </varray>
  <energy>
   <i name="e_fr_energy">   -300.80245219 </i>
   <i name="e_wo_entrp">   -300.80245219 </i>
   <i name="e_0_energy">      0.00000000 </i>
  </energy>
  <scstep>
   <time name="total">   31.63   31.69</time>
   <energy>
    <i name="e_fr_energy">   -956.89744187 </i>
    <i name="e_wo_entrp">   -956.89744187 </i>
    <i name="e_0_energy">   -956.89744187 </i>
   </energy>
  </scstep>
  <scstep>
   <time name="total">   41.41   41.42</time>
   <energy>
    <i name="e_fr_energy">  -1009.24345161 </i>
    <i name="e_wo_entrp">  -1009.24345161 </i>
    <i name="e_0_energy">  -1009.24345161 </i>
   </energy>
  </scstep>
  <scstep>
   <time name="total">   42.30   42.36</time>
   <energy>
    <i name="e_fr_energy">  -1017.64525626 </i>
    <i name="e_wo_entrp">  -1017.64525626 </i>
    <i name="e_0_energy">  -1017.64525626 </i>
   </energy>
  </scstep>
  <scstep>
   <time name="total">   30.83   30.95</time>
   <energy>
    <i name="e_fr_energy">  -1019.45111178 </i>
    <i name="e_wo_entrp">  -1019.45111178 </i>
    <i name="e_0_energy">  -1019.45111178 </i>
   </energy>
  </scstep>
  <scstep>
   <time name="total">   29.07   29.13</time>
   <energy>
    <i name="e_fr_energy">  -1019.77966885 </i>
    <i name="e_wo_entrp">  -1019.77966885 </i>
    <i name="e_0_energy">  -1019.77966885 </i>
   </energy>
  </scstep>
  <scstep>
   <time name="total">   30.51   30.54</time>
   <energy>
    <i name="e_fr_energy">  -1019.86428070 </i>
    <i name="e_wo_entrp">  -1019.86428070 </i>
    <i name="e_0_energy">  -1019.86428070 </i>
   </energy>
  </scstep>
  <scstep>
   <time name="total">   30.44   30.44</time>
   <energy>
    <i name="e_fr_energy">  -1019.88771923 </i>
    <i name="e_wo_entrp">  -1019.88771923 </i>
    <i name="e_0_energy">  -1019.88771923 </i>
   </energy>
  </scstep>
  <scstep>
   <time name="total">   31.76   31.84</time>
   <energy>
    <i name="e_fr_energy">  -1019.89471723 </i>
    <i name="e_wo_entrp">  -1019.89471723 </i>
    <i name="e_0_energy">  -1019.89471723 </i>
   </energy>
  </scstep>
  <scstep>
   <time name="total">   32.69   32.79</time>
   <energy>
    <i name="e_fr_energy">  -1019.89673608 </i>
    <i name="e_wo_entrp">  -1019.89673608 </i>
    <i name="e_0_energy">  -1019.89673608 </i>
   </energy>
  </scstep>
  <scstep>
   <time name="total">   32.04   32.10</time>
   <energy>
    <i name="e_fr_energy">  -1019.89722859 </i>
    <i name="e_wo_entrp">  -1019.89722859 </i>
    <i name="e_0_energy">  -1019.89722859 </i>
   </energy>
  </scstep>
  <scstep>
   <time name="total">   32.44   32.45</time>
   <energy>
    <i name="e_fr_energy">  -1019.89730760 </i>
    <i name="e_wo_entrp">  -1019.89730760 </i>
    <i name="e_0_energy">  -1019.89730760 </i>
   </energy>
  </scstep>
  <scstep>
   <time name="total">   34.19   34.24</time>
   <energy>
    <i name="e_fr_energy">  -1019.89732273 </i>
    <i name="e_wo_entrp">  -1019.89732273 </i>
    <i name="e_0_energy">  -1019.89732273 </i>
   </energy>
  </scstep>
  <scstep>
   <time name="total">   31.68   31.71</time>
   <energy>
    <i name="e_fr_energy">  -1019.89729986 </i>
    <i name="e_wo_entrp">  -1019.89729986 </i>
    <i name="e_0_energy">  -1019.89729986 </i>
   </energy>
  </scstep>
  <scstep>
   <time name="total">   31.24   31.25</time>
   <energy>
    <i name="e_fr_energy">  -1019.89732078 </i>
    <i name="e_wo_entrp">  -1019.89732078 </i>
    <i name="e_0_energy">  -1019.89732078 </i>
   </energy>
  </scstep>
  <scstep>
   <time name="total">   30.85   30.89</time>
   <energy>
    <i name="e_fr_energy">  -1019.89730595 </i>
    <i name="e_wo_entrp">  -1019.89730595 </i>
    <i name="e_0_energy">  -1019.89730595 </i>
   </energy>
  </scstep>
  <scstep>
   <time name="total">   31.76   31.89</time>
   <energy>
    <i name="e_fr_energy">   -957.25116870 </i>
    <i name="e_wo_entrp">   -957.25116870 </i>
    <i name="e_0_energy">   -957.25116870 </i>
   </energy>
  </scstep>
  <scstep>
   <time name="total">   42.79   42.88</time>
   <energy>
    <i name="e_fr_energy">  -1011.52188274 </i>
    <i name="e_wo_entrp">  -1011.52188274 </i>
    <i name="e_0_energy">  -1011.52188274 </i>
   </energy>
  </scstep>
  <scstep>
   <time name="total">   41.69   41.73</time>
   <energy>
    <i name="e_fr_energy">  -1019.05019600 </i>
    <i name="e_wo_entrp">  -1019.05019600 </i>
    <i name="e_0_energy">  -1019.05019600 </i>
   </energy>
  </scstep>
  <scstep>
   <time name="total">   31.27   31.26</time>
   <energy>
    <i name="e_fr_energy">  -1020.91189253 </i>
    <i name="e_wo_entrp">  -1020.91189253 </i>
    <i name="e_0_energy">  -1020.91189253 </i>
   </energy>
  </scstep>
  <scstep>
   <time name="total">   33.30   33.36</time>
   <energy>
    <i name="e_fr_energy">  -1021.24408866 </i>
    <i name="e_wo_entrp">  -1021.24408866 </i>
    <i name="e_0_energy">  -1021.24408866 </i>
   </energy>
  </scstep>
  <scstep>
   <time name="total">   33.86   33.94</time>
   <energy>
    <i name="e_fr_energy">  -1021.32725162 </i>
    <i name="e_wo_entrp">  -1021.32725162 </i>
    <i name="e_0_energy">  -1021.32725162 </i>
   </energy>
  </scstep>
  <scstep>
   <time name="total">   32.46   32.48</time>
   <energy>
    <i name="e_fr_energy">  -1021.35112141 </i>
    <i name="e_wo_entrp">  -1021.35112141 </i>
    <i name="e_0_energy">  -1021.35112141 </i>
   </energy>
  </scstep>
  <scstep>
   <time name="total">   35.86   35.90</time>
   <energy>
    <i name="e_fr_energy">  -1021.35811717 </i>
    <i name="e_wo_entrp">  -1021.35811717 </i>
    <i name="e_0_energy">  -1021.35811717 </i>
   </energy>
  </scstep>
  <scstep>
   <time name="total">   31.68   31.81</time>
   <energy>
    <i name="e_fr_energy">  -1021.36004658 </i>
    <i name="e_wo_entrp">  -1021.36004658 </i>
    <i name="e_0_energy">  -1021.36004658 </i>
   </energy>
  </scstep>
  <scstep>
   <time name="total">   33.55   33.65</time>
   <energy>
    <i name="e_fr_energy">  -1021.36047246 </i>
    <i name="e_wo_entrp">  -1021.36047246 </i>
    <i name="e_0_energy">  -1021.36047246 </i>
   </energy>
  </scstep>
  <scstep>
   <time name="total">   32.50   32.54</time>
   <energy>
    <i name="e_fr_energy">  -1021.36055534 </i>
    <i name="e_wo_entrp">  -1021.36055534 </i>
    <i name="e_0_energy">  -1021.36055534 </i>
   </energy>
  </scstep>
  <scstep>
   <time name="total">   31.48   31.48</time>
   <energy>
    <i name="e_fr_energy">  -1021.36056080 </i>
    <i name="e_wo_entrp">  -1021.36056080 </i>
    <i name="e_0_energy">  -1021.36056080 </i>
   </energy>
  </scstep>
  <scstep>
   <time name="total">   31.48   31.47</time>
   <energy>
    <i name="e_fr_energy">  -1021.36056657 </i>
    <i name="e_wo_entrp">  -1021.36056657 </i>
    <i name="e_0_energy">  -1021.36056657 </i>
   </energy>
  </scstep>
  <scstep>
   <time name="total">   31.61   31.63</time>
   <energy>
    <i name="e_fr_energy">  -1021.36055642 </i>
    <i name="e_wo_entrp">  -1021.36055642 </i>
    <i name="e_0_energy">  -1021.36055642 </i>
   </energy>
  </scstep>
  <scstep>
   <time name="total">   30.96   30.98</time>
   <energy>
    <i name="e_fr_energy">  -1021.36055943 </i>
    <i name="e_wo_entrp">  -1021.36055943 </i>
    <i name="e_0_energy">  -1021.36055943 </i>
   </energy>
  </scstep>
  <scstep>
   <time name="total">   33.57   33.58</time>
   <energy>
    <i name="e_fr_energy">   -947.30265200 </i>
    <i name="e_wo_entrp">   -947.30265200 </i>
    <i name="e_0_energy">   -947.30265200 </i>
   </energy>
  </scstep>
  <scstep>
   <time name="total">   42.83   42.91</time>
   <energy>
    <i name="e_fr_energy">  -1012.54942847 </i>
    <i name="e_wo_entrp">  -1012.54942847 </i>
    <i name="e_0_energy">  -1012.54942847 </i>
   </energy>
  </scstep>
  <scstep>
   <time name="total">   43.84   43.87</time>
   <energy>
    <i name="e_fr_energy">  -1021.05051679 </i>
    <i name="e_wo_entrp">  -1021.05051679 </i>
    <i name="e_0_energy">  -1021.05051679 </i>
   </energy>
  </scstep>
  <scstep>
   <time name="total">   34.19   34.29</time>
   <energy>
    <i name="e_fr_energy">  -1023.20657033 </i>
    <i name="e_wo_entrp">  -1023.20657033 </i>
    <i name="e_0_energy">  -1023.20657033 </i>
   </energy>
  </scstep>
  <scstep>
   <time name="total">   33.51   33.55</time>
   <energy>
    <i name="e_fr_energy">  -1023.58777098 </i>
    <i name="e_wo_entrp">  -1023.58777098 </i>
    <i name="e_0_energy">  -1023.58777098 </i>
   </energy>
  </scstep>
  <scstep>
   <time name="total">   33.45   33.67</time>
   <energy>
    <i name="e_fr_energy">  -1023.68693291 </i>
    <i name="e_wo_entrp">  -1023.68693291 </i>
    <i name="e_0_energy">  -1023.68693291 </i>
   </energy>
  </scstep>
  <scstep>
   <time name="total">   35.17   35.20</time>
   <energy>
    <i name="e_fr_energy">  -1023.71605458 </i>
    <i name="e_wo_entrp">  -1023.71605458 </i>
    <i name="e_0_energy">  -1023.71605458 </i>
   </energy>
  </scstep>
  <scstep>
   <time name="total">   33.42   33.43</time>
   <energy>
    <i name="e_fr_energy">  -1023.72396320 </i>
    <i name="e_wo_entrp">  -1023.72396320 </i>
    <i name="e_0_energy">  -1023.72396320 </i>
   </energy>
  </scstep>
  <scstep>
   <time name="total">   33.79   33.88</time>
   <energy>
    <i name="e_fr_energy">  -1023.72580610 </i>
    <i name="e_wo_entrp">  -1023.72580610 </i>
    <i name="e_0_energy">  -1023.72580610 </i>
   </energy>
  </scstep>
  <scstep>
   <time name="total">   32.80   32.86</time>
   <energy>
    <i name="e_fr_energy">  -1023.72637984 </i>
    <i name="e_wo_entrp">  -1023.72637984 </i>
    <i name="e_0_energy">  -1023.72637984 </i>
   </energy>
  </scstep>
  <scstep>
   <time name="total">   32.80   32.84</time>
   <energy>
    <i name="e_fr_energy">  -1023.72640389 </i>
    <i name="e_wo_entrp">  -1023.72640389 </i>
    <i name="e_0_energy">  -1023.72640389 </i>
   </energy>
  </scstep>
  <scstep>
   <time name="total">   32.58   32.66</time>
   <energy>
    <i name="e_fr_energy">  -1023.72648864 </i>
    <i name="e_wo_entrp">  -1023.72648864 </i>
    <i name="e_0_energy">  -1023.72648864 </i>
   </energy>
  </scstep>
  <scstep>
   <time name="total">   31.34   31.38</time>
   <energy>
    <i name="e_fr_energy">  -1023.72642055 </i>
    <i name="e_wo_entrp">  -1023.72642055 </i>
    <i name="e_0_energy">  -1023.72642055 </i>
   </energy>
  </scstep>
  <scstep>
   <time name="total">   30.93   30.93</time>
   <energy>
    <i name="e_fr_energy">  -1023.72647660 </i>
    <i name="e_wo_entrp">  -1023.72647660 </i>
    <i name="e_0_energy">  -1023.72647660 </i>
   </energy>
  </scstep>
  <scstep>
   <time name="total">   30.84   30.90</time>
   <energy>
    <i name="e_fr_energy">  -1023.72642299 </i>
    <i name="e_wo_entrp">  -1023.72642299 </i>
    <i name="e_0_energy">  -1023.72642299 </i>
   </energy>
  </scstep>
  <scstep>
   <time name="total">   29.46   29.58</time>
   <energy>
    <i name="e_fr_energy">     -1.60837782 </i>
    <i name="e_wo_entrp">     -1.60837782 </i>
    <i name="e_0_energy">     -1.60837782 </i>
   </energy>
  </scstep>
  <scstep>
   <time name="total">   33.70   33.87</time>
   <energy>
    <i name="e_fr_energy">     -2.76215668 </i>
    <i name="e_wo_entrp">     -2.76215668 </i>
    <i name="e_0_energy">     -2.76215668 </i>
   </energy>
  </scstep>
  <scstep>
   <time name="total">   38.40   38.55</time>
   <energy>
    <i name="e_fr_energy">     -3.05113494 </i>
    <i name="e_wo_entrp">     -3.05113494 </i>
    <i name="e_0_energy">     -3.05113494 </i>
   </energy>
  </scstep>
  <scstep>
   <time name="total">   38.33   38.45</time>
   <energy>
    <i name="e_fr_energy">     -3.06360733 </i>
    <i name="e_wo_entrp">     -3.06360733 </i>
    <i name="e_0_energy">     -3.06360733 </i>
   </energy>
  </scstep>
  <scstep>
   <time name="total">   40.20   40.48</time>
   <energy>
    <i name="e_fr_energy">     -3.06614313 </i>
    <i name="e_wo_entrp">     -3.06614313 </i>
    <i name="e_0_energy">     -3.06614313 </i>
   </energy>
  </scstep>
  <scstep>
   <time name="total">   42.34   42.44</time>
   <energy>
    <i name="e_fr_energy">     -3.06662518 </i>
    <i name="e_wo_entrp">     -3.06662518 </i>
    <i name="e_0_energy">     -3.06662518 </i>
   </energy>
  </scstep>
  <scstep>
   <time name="total">   39.56   39.77</time>
   <energy>
    <i name="e_fr_energy">     -3.06670749 </i>
    <i name="e_wo_entrp">     -3.06670749 </i>
    <i name="e_0_energy">     -3.06670749 </i>
   </energy>
  </scstep>
  <scstep>
   <time name="total">   40.11   40.17</time>
   <energy>
    <i name="e_fr_energy">     -3.06672342 </i>
    <i name="e_wo_entrp">     -3.06672342 </i>
    <i name="e_0_energy">     -3.06672342 </i>
   </energy>
  </scstep>
  <scstep>
   <time name="total">   40.34   40.45</time>
   <energy>
    <i name="e_fr_energy">     -3.06672656 </i>
    <i name="e_wo_entrp">     -3.06672656 </i>
    <i name="e_0_energy">     -3.06672656 </i>
   </energy>
  </scstep>
  <scstep>
   <time name="total">   28.98   29.14</time>
   <energy>
    <i name="e_fr_energy">     -1.62436846 </i>
    <i name="e_wo_entrp">     -1.62436846 </i>
    <i name="e_0_energy">     -1.62436846 </i>
   </energy>
  </scstep>
  <scstep>
   <time name="total">   33.12   33.34</time>
   <energy>
    <i name="e_fr_energy">     -2.78691489 </i>
    <i name="e_wo_entrp">     -2.78691489 </i>
    <i name="e_0_energy">     -2.78691489 </i>
   </energy>
  </scstep>
  <scstep>
   <time name="total">   39.56   39.60</time>
   <energy>
    <i name="e_fr_energy">     -3.08511985 </i>
    <i name="e_wo_entrp">     -3.08511985 </i>
    <i name="e_0_energy">     -3.08511985 </i>
   </energy>
  </scstep>
  <scstep>
   <time name="total">   36.91   37.13</time>
   <energy>
    <i name="e_fr_energy">     -3.09824755 </i>
    <i name="e_wo_entrp">     -3.09824755 </i>
    <i name="e_0_energy">     -3.09824755 </i>
   </energy>
  </scstep>
  <scstep>
   <time name="total">   42.31   42.38</time>
   <energy>
    <i name="e_fr_energy">     -3.10094411 </i>
    <i name="e_wo_entrp">     -3.10094411 </i>
    <i name="e_0_energy">     -3.10094411 </i>
   </energy>
  </scstep>
  <scstep>
   <time name="total">   41.92   41.96</time>
   <energy>
    <i name="e_fr_energy">     -3.10147671 </i>
    <i name="e_wo_entrp">     -3.10147671 </i>
    <i name="e_0_energy">     -3.10147671 </i>
   </energy>
  </scstep>
  <scstep>
   <time name="total">   40.00   40.11</time>
   <energy>
    <i name="e_fr_energy">     -3.10156610 </i>
    <i name="e_wo_entrp">     -3.10156610 </i>
    <i name="e_0_energy">     -3.10156610 </i>
   </energy>
  </scstep>
  <scstep>
   <time name="total">   40.12   40.24</time>
   <energy>
    <i name="e_fr_energy">     -3.10158313 </i>
    <i name="e_wo_entrp">     -3.10158313 </i>
    <i name="e_0_energy">     -3.10158313 </i>
   </energy>
  </scstep>
  <scstep>
   <time name="total">   41.65   41.69</time>
   <energy>
    <i name="e_fr_energy">     -3.10158663 </i>
    <i name="e_wo_entrp">     -3.10158663 </i>
    <i name="e_0_energy">     -3.10158663 </i>
   </energy>
  </scstep>
  <scstep>
   <time name="total">   29.03   29.09</time>
   <energy>
    <i name="e_fr_energy">     -1.72277391 </i>
    <i name="e_wo_entrp">     -1.72277391 </i>
    <i name="e_0_energy">     -1.72277391 </i>
   </energy>
  </scstep>
  <scstep>
   <time name="total">   35.39   35.44</time>
   <energy>
    <i name="e_fr_energy">     -2.77912382 </i>
    <i name="e_wo_entrp">     -2.77912382 </i>
    <i name="e_0_energy">     -2.77912382 </i>
   </energy>
  </scstep>
  <scstep>
   <time name="total">   40.07   40.21</time>
   <energy>
    <i name="e_fr_energy">     -3.08683802 </i>
    <i name="e_wo_entrp">     -3.08683802 </i>
    <i name="e_0_energy">     -3.08683802 </i>
   </energy>
  </scstep>
  <scstep>
   <time name="total">   38.61   38.75</time>
   <energy>
    <i name="e_fr_energy">     -3.09973174 </i>
    <i name="e_wo_entrp">     -3.09973174 </i>
    <i name="e_0_energy">     -3.09973174 </i>
   </energy>
  </scstep>
  <scstep>
   <time name="total">   42.09   42.17</time>
   <energy>
    <i name="e_fr_energy">     -3.10219773 </i>
    <i name="e_wo_entrp">     -3.10219773 </i>
    <i name="e_0_energy">     -3.10219773 </i>
   </energy>
  </scstep>
  <scstep>
   <time name="total">   40.97   41.05</time>
   <energy>
    <i name="e_fr_energy">     -3.10270010 </i>
    <i name="e_wo_entrp">     -3.10270010 </i>
    <i name="e_0_energy">     -3.10270010 </i>
   </energy>
  </scstep>
  <scstep>
   <time name="total">   42.73   42.89</time>
   <energy>
    <i name="e_fr_energy">     -3.10278770 </i>
    <i name="e_wo_entrp">     -3.10278770 </i>
    <i name="e_0_energy">     -3.10278770 </i>
   </energy>
  </scstep>
  <scstep>
   <time name="total">   40.24   40.30</time>
   <energy>
    <i name="e_fr_energy">     -3.10280372 </i>
    <i name="e_wo_entrp">     -3.10280372 </i>
    <i name="e_0_energy">     -3.10280372 </i>
   </energy>
  </scstep>
  <scstep>
   <time name="total">   41.03   41.12</time>
   <energy>
    <i name="e_fr_energy">     -3.10280692 </i>
    <i name="e_wo_entrp">     -3.10280692 </i>
    <i name="e_0_energy">     -3.10280692 </i>
   </energy>
  </scstep>
  <varray name="epsilon_rpa" >
   <v>       3.08531639       0.00000039       0.00000000 </v>
   <v>      -0.00000039       3.08531639      -0.00000000 </v>
   <v>      -0.00000000      -0.00000000       3.09792585 </v>
  </varray>
  <kpoints>
   <generation param="Gamma">
    <v type="int" name="divisions">       4        4        5 </v>
    <v name="usershift">      0.00000000       0.00000000       0.00000000 </v>
    <v name="genvec1">      0.25000000      -0.00000000       0.00000000 </v>
    <v name="genvec2">      0.00000000       0.25000000       0.00000000 </v>
    <v name="genvec3">      0.00000000       0.00000000       0.20000000 </v>
    <v name="shift">      0.00000000       0.00000000       0.00000000 </v>
   </generation>
   <varray name="kpointlist" >
    <v>       0.00000000       0.00000000       0.00000000 </v>
    <v>       0.25000000       0.00000000       0.00000000 </v>
    <v>       0.50000000       0.00000000       0.00000000 </v>
    <v>       0.00000000       0.25000000       0.00000000 </v>
    <v>       0.25000000       0.25000000       0.00000000 </v>
    <v>       0.50000000       0.25000000       0.00000000 </v>
    <v>      -0.25000000       0.25000000       0.00000000 </v>
    <v>       0.00000000       0.50000000       0.00000000 </v>
    <v>       0.25000000       0.50000000       0.00000000 </v>
    <v>       0.50000000       0.50000000       0.00000000 </v>
    <v>       0.00000000       0.00000000       0.20000000 </v>
    <v>       0.25000000       0.00000000       0.20000000 </v>
    <v>       0.50000000       0.00000000       0.20000000 </v>
    <v>       0.00000000       0.25000000       0.20000000 </v>
    <v>       0.25000000       0.25000000       0.20000000 </v>
    <v>       0.50000000       0.25000000       0.20000000 </v>
    <v>      -0.25000000       0.25000000       0.20000000 </v>
    <v>       0.00000000       0.50000000       0.20000000 </v>
    <v>       0.25000000       0.50000000       0.20000000 </v>
    <v>       0.50000000       0.50000000       0.20000000 </v>
    <v>       0.00000000       0.00000000       0.40000000 </v>
    <v>       0.25000000       0.00000000       0.40000000 </v>
    <v>       0.50000000       0.00000000       0.40000000 </v>
    <v>       0.00000000       0.25000000       0.40000000 </v>
    <v>       0.25000000       0.25000000       0.40000000 </v>
    <v>       0.50000000       0.25000000       0.40000000 </v>
    <v>      -0.25000000       0.25000000       0.40000000 </v>
    <v>       0.00000000       0.50000000       0.40000000 </v>
    <v>       0.25000000       0.50000000       0.40000000 </v>
    <v>       0.50000000       0.50000000       0.40000000 </v>
   </varray>
   <varray name="weights" >
    <v>       0.01250000 </v>
    <v>       0.02500000 </v>
    <v>       0.01250000 </v>
    <v>       0.02500000 </v>
    <v>       0.02500000 </v>
    <v>       0.02500000 </v>
    <v>       0.02500000 </v>
    <v>       0.01250000 </v>
    <v>       0.02500000 </v>
    <v>       0.01250000 </v>
    <v>       0.02500000 </v>
    <v>       0.05000000 </v>
    <v>       0.02500000 </v>
    <v>       0.05000000 </v>
    <v>       0.05000000 </v>
    <v>       0.05000000 </v>
    <v>       0.05000000 </v>
    <v>       0.02500000 </v>
    <v>       0.05000000 </v>
    <v>       0.02500000 </v>
    <v>       0.02500000 </v>
    <v>       0.05000000 </v>
    <v>       0.02500000 </v>
    <v>       0.05000000 </v>
    <v>       0.05000000 </v>
    <v>       0.05000000 </v>
    <v>       0.05000000 </v>
    <v>       0.02500000 </v>
    <v>       0.05000000 </v>
    <v>       0.02500000 </v>
   </varray>
   <varray name="tetrahedronlist"  type="int" >
    <v type="int" >        2        1        2        4       12 </v>
    <v type="int" >        2        2        4        5       12 </v>
    <v type="int" >        2        4        5       12       15 </v>
    <v type="int" >        2        1        4       11       12 </v>
    <v type="int" >        2        4       11       12       14 </v>
    <v type="int" >        2        4       12       14       15 </v>
    <v type="int" >        2        2        3        5       13 </v>
    <v type="int" >        2        3        5        6       13 </v>
    <v type="int" >        2        5        6       13       16 </v>
    <v type="int" >        2        2        5       12       13 </v>
    <v type="int" >        2        5       12       13       15 </v>
    <v type="int" >        2        5       13       15       16 </v>
    <v type="int" >        2        2        3        6       12 </v>
    <v type="int" >        2        2        6        7       12 </v>
    <v type="int" >        2        6        7       12       17 </v>
    <v type="int" >        2        3        6       12       13 </v>
    <v type="int" >        2        6       12       13       16 </v>
    <v type="int" >        2        6       12       16       17 </v>
    <v type="int" >        2        1        2        7       11 </v>
    <v type="int" >        2        1        4        7       11 </v>
    <v type="int" >        2        4        7       11       14 </v>
    <v type="int" >        2        2        7       11       12 </v>
    <v type="int" >        2        7       11       12       17 </v>
    <v type="int" >        2        7       11       14       17 </v>
    <v type="int" >        2        4        5        8       15 </v>
    <v type="int" >        2        5        8        9       15 </v>
    <v type="int" >        2        8        9       15       19 </v>
    <v type="int" >        2        4        8       14       15 </v>
    <v type="int" >        2        8       14       15       18 </v>
    <v type="int" >        2        8       15       18       19 </v>
    <v type="int" >        2        5        6        9       16 </v>
    <v type="int" >        2        6        9       10       16 </v>
    <v type="int" >        2        9       10       16       20 </v>
    <v type="int" >        2        5        9       15       16 </v>
    <v type="int" >        2        9       15       16       19 </v>
    <v type="int" >        2        9       16       19       20 </v>
    <v type="int" >        2        6        7       10       17 </v>
    <v type="int" >        2        7        9       10       17 </v>
    <v type="int" >        2        9       10       17       19 </v>
    <v type="int" >        2        6       10       16       17 </v>
    <v type="int" >        2       10       16       17       20 </v>
    <v type="int" >        2       10       17       19       20 </v>
    <v type="int" >        2        4        7        9       14 </v>
    <v type="int" >        2        4        8        9       14 </v>
    <v type="int" >        2        8        9       14       18 </v>
    <v type="int" >        2        7        9       14       17 </v>
    <v type="int" >        2        9       14       17       19 </v>
    <v type="int" >        2        9       14       18       19 </v>
    <v type="int" >        2        4        8        9       19 </v>
    <v type="int" >        2        4        7        9       19 </v>
    <v type="int" >        2        4        7       17       19 </v>
    <v type="int" >        2        4        8       18       19 </v>
    <v type="int" >        2        4       14       18       19 </v>
    <v type="int" >        2        4       14       17       19 </v>
    <v type="int" >        2        7        9       10       20 </v>
    <v type="int" >        2        6        7       10       20 </v>
    <v type="int" >        2        6        7       16       20 </v>
    <v type="int" >        2        7        9       19       20 </v>
    <v type="int" >        2        7       17       19       20 </v>
    <v type="int" >        2        7       16       17       20 </v>
    <v type="int" >        2        6        9       10       19 </v>
    <v type="int" >        2        5        6        9       19 </v>
    <v type="int" >        2        5        6       15       19 </v>
    <v type="int" >        2        6       10       19       20 </v>
    <v type="int" >        2        6       16       19       20 </v>
    <v type="int" >        2        6       15       16       19 </v>
    <v type="int" >        2        5        8        9       18 </v>
    <v type="int" >        2        4        5        8       18 </v>
    <v type="int" >        2        4        5       14       18 </v>
    <v type="int" >        2        5        9       18       19 </v>
    <v type="int" >        2        5       15       18       19 </v>
    <v type="int" >        2        5       14       15       18 </v>
    <v type="int" >        2        1        4        7       17 </v>
    <v type="int" >        2        1        2        7       17 </v>
    <v type="int" >        2        1        2       12       17 </v>
    <v type="int" >        2        1        4       14       17 </v>
    <v type="int" >        2        1       11       14       17 </v>
    <v type="int" >        2        1       11       12       17 </v>
    <v type="int" >        2        2        6        7       16 </v>
    <v type="int" >        2        2        3        6       16 </v>
    <v type="int" >        2        2        3       13       16 </v>
    <v type="int" >        2        2        7       16       17 </v>
    <v type="int" >        2        2       12       16       17 </v>
    <v type="int" >        2        2       12       13       16 </v>
    <v type="int" >        2        3        5        6       15 </v>
    <v type="int" >        2        2        3        5       15 </v>
    <v type="int" >        2        2        3       12       15 </v>
    <v type="int" >        2        3        6       15       16 </v>
    <v type="int" >        2        3       13       15       16 </v>
    <v type="int" >        2        3       12       13       15 </v>
    <v type="int" >        2        2        4        5       14 </v>
    <v type="int" >        2        1        2        4       14 </v>
    <v type="int" >        2        1        2       11       14 </v>
    <v type="int" >        2        2        5       14       15 </v>
    <v type="int" >        2        2       12       14       15 </v>
    <v type="int" >        2        2       11       12       14 </v>
    <v type="int" >        2       11       12       14       22 </v>
    <v type="int" >        2       12       14       15       22 </v>
    <v type="int" >        2       14       15       22       25 </v>
    <v type="int" >        2       11       14       21       22 </v>
    <v type="int" >        2       14       21       22       24 </v>
    <v type="int" >        2       14       22       24       25 </v>
    <v type="int" >        2       12       13       15       23 </v>
    <v type="int" >        2       13       15       16       23 </v>
    <v type="int" >        2       15       16       23       26 </v>
    <v type="int" >        2       12       15       22       23 </v>
    <v type="int" >        2       15       22       23       25 </v>
    <v type="int" >        2       15       23       25       26 </v>
    <v type="int" >        2       12       13       16       22 </v>
    <v type="int" >        2       12       16       17       22 </v>
    <v type="int" >        2       16       17       22       27 </v>
    <v type="int" >        2       13       16       22       23 </v>
    <v type="int" >        2       16       22       23       26 </v>
    <v type="int" >        2       16       22       26       27 </v>
    <v type="int" >        2       11       12       17       21 </v>
    <v type="int" >        2       11       14       17       21 </v>
    <v type="int" >        2       14       17       21       24 </v>
    <v type="int" >        2       12       17       21       22 </v>
    <v type="int" >        2       17       21       22       27 </v>
    <v type="int" >        2       17       21       24       27 </v>
    <v type="int" >        2       14       15       18       25 </v>
    <v type="int" >        2       15       18       19       25 </v>
    <v type="int" >        2       18       19       25       29 </v>
    <v type="int" >        2       14       18       24       25 </v>
    <v type="int" >        2       18       24       25       28 </v>
    <v type="int" >        2       18       25       28       29 </v>
    <v type="int" >        2       15       16       19       26 </v>
    <v type="int" >        2       16       19       20       26 </v>
    <v type="int" >        2       19       20       26       30 </v>
    <v type="int" >        2       15       19       25       26 </v>
    <v type="int" >        2       19       25       26       29 </v>
    <v type="int" >        2       19       26       29       30 </v>
    <v type="int" >        2       16       17       20       27 </v>
    <v type="int" >        2       17       19       20       27 </v>
    <v type="int" >        2       19       20       27       29 </v>
    <v type="int" >        2       16       20       26       27 </v>
    <v type="int" >        2       20       26       27       30 </v>
    <v type="int" >        2       20       27       29       30 </v>
    <v type="int" >        2       14       17       19       24 </v>
    <v type="int" >        2       14       18       19       24 </v>
    <v type="int" >        2       18       19       24       28 </v>
    <v type="int" >        2       17       19       24       27 </v>
    <v type="int" >        2       19       24       27       29 </v>
    <v type="int" >        2       19       24       28       29 </v>
    <v type="int" >        2       14       18       19       29 </v>
    <v type="int" >        2       14       17       19       29 </v>
    <v type="int" >        2       14       17       27       29 </v>
    <v type="int" >        2       14       18       28       29 </v>
    <v type="int" >        2       14       24       28       29 </v>
    <v type="int" >        2       14       24       27       29 </v>
    <v type="int" >        2       17       19       20       30 </v>
    <v type="int" >        2       16       17       20       30 </v>
    <v type="int" >        2       16       17       26       30 </v>
    <v type="int" >        2       17       19       29       30 </v>
    <v type="int" >        2       17       27       29       30 </v>
    <v type="int" >        2       17       26       27       30 </v>
    <v type="int" >        2       16       19       20       29 </v>
    <v type="int" >        2       15       16       19       29 </v>
    <v type="int" >        2       15       16       25       29 </v>
    <v type="int" >        2       16       20       29       30 </v>
    <v type="int" >        2       16       26       29       30 </v>
    <v type="int" >        2       16       25       26       29 </v>
    <v type="int" >        2       15       18       19       28 </v>
    <v type="int" >        2       14       15       18       28 </v>
    <v type="int" >        2       14       15       24       28 </v>
    <v type="int" >        2       15       19       28       29 </v>
    <v type="int" >        2       15       25       28       29 </v>
    <v type="int" >        2       15       24       25       28 </v>
    <v type="int" >        2       11       14       17       27 </v>
    <v type="int" >        2       11       12       17       27 </v>
    <v type="int" >        2       11       12       22       27 </v>
    <v type="int" >        2       11       14       24       27 </v>
    <v type="int" >        2       11       21       24       27 </v>
    <v type="int" >        2       11       21       22       27 </v>
    <v type="int" >        2       12       16       17       26 </v>
    <v type="int" >        2       12       13       16       26 </v>
    <v type="int" >        2       12       13       23       26 </v>
    <v type="int" >        2       12       17       26       27 </v>
    <v type="int" >        2       12       22       26       27 </v>
    <v type="int" >        2       12       22       23       26 </v>
    <v type="int" >        2       13       15       16       25 </v>
    <v type="int" >        2       12       13       15       25 </v>
    <v type="int" >        2       12       13       22       25 </v>
    <v type="int" >        2       13       16       25       26 </v>
    <v type="int" >        2       13       23       25       26 </v>
    <v type="int" >        2       13       22       23       25 </v>
    <v type="int" >        2       12       14       15       24 </v>
    <v type="int" >        2       11       12       14       24 </v>
    <v type="int" >        2       11       12       21       24 </v>
    <v type="int" >        2       12       15       24       25 </v>
    <v type="int" >        2       12       22       24       25 </v>
    <v type="int" >        2       12       21       22       24 </v>
    <v type="int" >        2       21       22       22       24 </v>
    <v type="int" >        2       22       22       24       25 </v>
    <v type="int" >        2       22       24       25       25 </v>
    <v type="int" >        2       21       21       22       24 </v>
    <v type="int" >        2       21       22       24       24 </v>
    <v type="int" >        2       22       24       24       25 </v>
    <v type="int" >        2       22       23       23       25 </v>
    <v type="int" >        2       23       23       25       26 </v>
    <v type="int" >        2       23       25       26       26 </v>
    <v type="int" >        2       22       22       23       25 </v>
    <v type="int" >        2       22       23       25       25 </v>
    <v type="int" >        2       23       25       25       26 </v>
    <v type="int" >        2       22       22       23       26 </v>
    <v type="int" >        2       22       22       26       27 </v>
    <v type="int" >        2       22       26       27       27 </v>
    <v type="int" >        2       22       23       23       26 </v>
    <v type="int" >        2       22       23       26       26 </v>
    <v type="int" >        2       22       26       26       27 </v>
    <v type="int" >        2       21       21       22       27 </v>
    <v type="int" >        2       21       21       24       27 </v>
    <v type="int" >        2       21       24       24       27 </v>
    <v type="int" >        2       21       22       22       27 </v>
    <v type="int" >        2       21       22       27       27 </v>
    <v type="int" >        2       21       24       27       27 </v>
    <v type="int" >        2       24       25       25       28 </v>
    <v type="int" >        2       25       25       28       29 </v>
    <v type="int" >        2       25       28       29       29 </v>
    <v type="int" >        2       24       24       25       28 </v>
    <v type="int" >        2       24       25       28       28 </v>
    <v type="int" >        2       25       28       28       29 </v>
    <v type="int" >        2       25       26       26       29 </v>
    <v type="int" >        2       26       26       29       30 </v>
    <v type="int" >        2       26       29       30       30 </v>
    <v type="int" >        2       25       25       26       29 </v>
    <v type="int" >        2       25       26       29       29 </v>
    <v type="int" >        2       26       29       29       30 </v>
    <v type="int" >        2       26       27       27       30 </v>
    <v type="int" >        2       27       27       29       30 </v>
    <v type="int" >        2       27       29       29       30 </v>
    <v type="int" >        2       26       26       27       30 </v>
    <v type="int" >        2       26       27       30       30 </v>
    <v type="int" >        2       27       29       30       30 </v>
    <v type="int" >        2       24       24       27       29 </v>
    <v type="int" >        2       24       24       28       29 </v>
    <v type="int" >        2       24       28       28       29 </v>
    <v type="int" >        2       24       27       27       29 </v>
    <v type="int" >        2       24       27       29       29 </v>
    <v type="int" >        2       24       28       29       29 </v>
   </varray>
   <i name="volumeweight">      0.00208333 </i>
  </kpoints>
  <scstep>
   <time name="total">   99.43   99.54</time>
   <energy>
    <i name="e_fr_energy">     -1.62196062 </i>
    <i name="e_wo_entrp">     -1.62196062 </i>
    <i name="e_0_energy">     -1.62196062 </i>
   </energy>
  </scstep>
  <scstep>
   <time name="total">  112.10  112.27</time>
   <energy>
    <i name="e_fr_energy">     -2.77259914 </i>
    <i name="e_wo_entrp">     -2.77259914 </i>
    <i name="e_0_energy">     -2.77259914 </i>
   </energy>
  </scstep>
  <scstep>
   <time name="total">  122.28  122.42</time>
   <energy>
    <i name="e_fr_energy">     -2.86389338 </i>
    <i name="e_wo_entrp">     -2.86389338 </i>
    <i name="e_0_energy">     -2.86389338 </i>
   </energy>
  </scstep>
  <scstep>
   <time name="total">  126.98  127.04</time>
   <energy>
    <i name="e_fr_energy">     -2.93387436 </i>
    <i name="e_wo_entrp">     -2.93387436 </i>
    <i name="e_0_energy">     -2.93387436 </i>
   </energy>
  </scstep>
  <scstep>
   <time name="total">  141.16  141.27</time>
   <energy>
    <i name="e_fr_energy">     -2.99135774 </i>
    <i name="e_wo_entrp">     -2.99135774 </i>
    <i name="e_0_energy">     -2.99135774 </i>
   </energy>
  </scstep>
  <scstep>
   <time name="total">  140.51  140.69</time>
   <energy>
    <i name="e_fr_energy">     -3.00956009 </i>
    <i name="e_wo_entrp">     -3.00956009 </i>
    <i name="e_0_energy">     -3.00956009 </i>
   </energy>
  </scstep>
  <scstep>
   <time name="total">  146.87  147.13</time>
   <energy>
    <i name="e_fr_energy">     -3.02191377 </i>
    <i name="e_wo_entrp">     -3.02191377 </i>
    <i name="e_0_energy">     -3.02191377 </i>
   </energy>
  </scstep>
  <scstep>
   <time name="total">  139.43  139.46</time>
   <energy>
    <i name="e_fr_energy">     -3.02151335 </i>
    <i name="e_wo_entrp">     -3.02151335 </i>
    <i name="e_0_energy">     -3.02151335 </i>
   </energy>
  </scstep>
  <scstep>
   <time name="total">  132.25  132.52</time>
   <energy>
    <i name="e_fr_energy">     -3.02211953 </i>
    <i name="e_wo_entrp">     -3.02211953 </i>
    <i name="e_0_energy">     -3.02211953 </i>
   </energy>
  </scstep>
  <scstep>
   <time name="total">  132.83  133.35</time>
   <energy>
    <i name="e_fr_energy">     -3.02237381 </i>
    <i name="e_wo_entrp">     -3.02237381 </i>
    <i name="e_0_energy">     -3.02237381 </i>
   </energy>
  </scstep>
  <scstep>
   <time name="total">  135.22  135.53</time>
   <energy>
    <i name="e_fr_energy">     -3.02248919 </i>
    <i name="e_wo_entrp">     -3.02248919 </i>
    <i name="e_0_energy">     -3.02248919 </i>
   </energy>
  </scstep>
  <scstep>
   <time name="total">  128.44  130.19</time>
   <energy>
    <i name="e_fr_energy">     -3.02248785 </i>
    <i name="e_wo_entrp">     -3.02248785 </i>
    <i name="e_0_energy">     -3.02248785 </i>
   </energy>
  </scstep>
  <kpoints>
   <generation param="Gamma">
    <v type="int" name="divisions">       4        4        5 </v>
    <v name="usershift">      0.00000000       0.00000000       0.00000000 </v>
    <v name="genvec1">      0.25000000      -0.00000000       0.00000000 </v>
    <v name="genvec2">      0.00000000       0.25000000       0.00000000 </v>
    <v name="genvec3">      0.00000000       0.00000000       0.20000000 </v>
    <v name="shift">      0.00000000       0.00000000       0.00000000 </v>
   </generation>
   <varray name="kpointlist" >
    <v>       0.00000000       0.00000000       0.00000000 </v>
    <v>       0.25000000       0.00000000       0.00000000 </v>
    <v>       0.50000000       0.00000000       0.00000000 </v>
    <v>       0.00000000       0.25000000       0.00000000 </v>
    <v>       0.25000000       0.25000000       0.00000000 </v>
    <v>       0.50000000       0.25000000       0.00000000 </v>
    <v>      -0.25000000       0.25000000       0.00000000 </v>
    <v>       0.00000000       0.50000000       0.00000000 </v>
    <v>       0.25000000       0.50000000       0.00000000 </v>
    <v>       0.50000000       0.50000000       0.00000000 </v>
    <v>       0.00000000       0.00000000       0.20000000 </v>
    <v>       0.25000000       0.00000000       0.20000000 </v>
    <v>       0.50000000       0.00000000       0.20000000 </v>
    <v>       0.00000000       0.25000000       0.20000000 </v>
    <v>       0.25000000       0.25000000       0.20000000 </v>
    <v>       0.50000000       0.25000000       0.20000000 </v>
    <v>      -0.25000000       0.25000000       0.20000000 </v>
    <v>       0.00000000       0.50000000       0.20000000 </v>
[...]
       <r>    9.6972    0.0000 </r>
       <r>    9.7054    0.0000 </r>
       <r>    9.7305    0.0000 </r>
       <r>    9.7786    0.0000 </r>
       <r>    9.8194    0.0000 </r>
       <r>    9.8398    0.0000 </r>
       <r>    9.8703    0.0000 </r>
       <r>    9.9515    0.0000 </r>
       <r>    9.9705    0.0000 </r>
       <r>    9.9992    0.0000 </r>
       <r>   10.0521    0.0000 </r>
       <r>   10.2044    0.0000 </r>
       <r>   10.2182    0.0000 </r>
       <r>   10.2571    0.0000 </r>
       <r>   10.2722    0.0000 </r>
       <r>   10.2971    0.0000 </r>
       <r>   10.3314    0.0000 </r>
       <r>   10.4071    0.0000 </r>
       <r>   10.4638    0.0000 </r>
       <r>   10.4926    0.0000 </r>
       <r>   10.5258    0.0000 </r>
       <r>   10.6257    0.0000 </r>
       <r>   10.6545    0.0000 </r>
       <r>   10.6915    0.0000 </r>
       <r>   10.7110    0.0000 </r>
       <r>   10.7844    0.0000 </r>
       <r>   10.8185    0.0000 </r>
       <r>   10.9110    0.0000 </r>
       <r>   10.9520    0.0000 </r>
       <r>   11.0672    0.0000 </r>
       <r>   11.0883    0.0000 </r>
       <r>   11.1311    0.0000 </r>
       <r>   11.2645    0.0000 </r>
       <r>   11.3497    0.0000 </r>
       <r>   11.3859    0.0000 </r>
       <r>   11.4036    0.0000 </r>
       <r>   11.5122    0.0000 </r>
       <r>   11.8212    0.0000 </r>
       <r>   11.9057    0.0000 </r>
      </set>
     </set>
    </set>
   </array>
  </eigenvalues>
  <separator name="orbital magnetization" >
   <v name="MAGDIPOLOUT">      0.00000000      0.00000000      0.00000000</v>
  </separator>
  <dos>
   <i name="efermi">      2.09783737 </i>
   <total>
    <array>
     <dimension dim="1">gridpoints</dimension>
     <dimension dim="2">spin</dimension>
     <field>energy</field>
     <field>total</field>
     <field>integrated</field>
     <set>
      <set comment="spin 1">
       <r>   -20.6191     0.0000     0.0000 </r>
       <r>   -20.5053     0.0000     0.0000 </r>
       <r>   -20.3914     0.0000     0.0000 </r>
       <r>   -20.2775     0.0000     0.0000 </r>
       <r>   -20.1636     0.0000     0.0000 </r>
       <r>   -20.0498     0.0000     0.0000 </r>
       <r>   -19.9359     0.0000     0.0000 </r>
       <r>   -19.8220     0.0000     0.0000 </r>
       <r>   -19.7082     0.0000     0.0000 </r>
       <r>   -19.5943     0.0000     0.0000 </r>
       <r>   -19.4804     0.0000     0.0000 </r>
       <r>   -19.3666     0.0000     0.0000 </r>
       <r>   -19.2527     0.0000     0.0000 </r>
       <r>   -19.1388     0.0000     0.0000 </r>
       <r>   -19.0249     0.0000     4.0000 </r>
       <r>   -18.9111     0.0000     4.0000 </r>
       <r>   -18.7972     0.0000     4.0000 </r>
       <r>   -18.6833     0.0000     4.0000 </r>
       <r>   -18.5695     0.0000     4.0000 </r>
       <r>   -18.4556     0.0000     4.0000 </r>
       <r>   -18.3417     0.0000     4.0000 </r>
       <r>   -18.2279     0.0000     4.0000 </r>
       <r>   -18.1140   159.1054     5.4348 </r>
       <r>   -18.0001     5.3503    11.9553 </r>
       <r>   -17.8863    13.2118    15.0826 </r>
       <r>   -17.7724     0.0000    16.0000 </r>
       <r>   -17.6585     0.0000    16.0000 </r>
       <r>   -17.5446     0.0000    16.0000 </r>
       <r>   -17.4308     0.0000    16.0000 </r>
       <r>   -17.3169     0.6141    16.0049 </r>
       <r>   -17.2030    18.9393    16.7748 </r>
       <r>   -17.0892    34.1829    19.1155 </r>
       <r>   -16.9753    35.3109    23.2627 </r>
       <r>   -16.8614    56.6502    30.5002 </r>
       <r>   -16.7476    31.2606    39.3614 </r>
       <r>   -16.6337    99.1839    52.8848 </r>
       <r>   -16.5198    53.4095    62.8954 </r>
       <r>   -16.4059    79.0193    69.7040 </r>
       <r>   -16.2921     4.1201    72.0570 </r>
       <r>   -16.1782     0.0000    76.0000 </r>
       <r>   -16.0643     0.0000    76.0000 </r>
       <r>   -15.9505     0.0000    76.0000 </r>
       <r>   -15.8366     0.0000    76.0000 </r>
       <r>   -15.7227     0.0000    76.0000 </r>
       <r>   -15.6089     0.0000    76.0000 </r>
       <r>   -15.4950     0.0000    76.0000 </r>
       <r>   -15.3811     0.0000    76.0000 </r>
       <r>   -15.2673     9.6650    76.9127 </r>
       <r>   -15.1534    65.8559    81.2540 </r>
       <r>   -15.0395     3.2291    87.9767 </r>
       <r>   -14.9256    37.5406    96.8576 </r>
       <r>   -14.8118    24.1952   107.3949 </r>
       <r>   -14.6979    15.3950   111.7939 </r>
       <r>   -14.5840     0.0000   112.0000 </r>
       <r>   -14.4702     0.0000   112.0000 </r>
       <r>   -14.3563     0.0000   112.0000 </r>
       <r>   -14.2424     0.0000   112.0000 </r>
       <r>   -14.1286     0.0000   112.0000 </r>
       <r>   -14.0147     0.0000   112.0000 </r>
       <r>   -13.9008     0.0000   112.0000 </r>
       <r>   -13.7870     0.0000   112.0000 </r>
       <r>   -13.6731     0.0000   112.0000 </r>
       <r>   -13.5592     0.0000   112.0000 </r>
       <r>   -13.4453     0.0000   112.0000 </r>
       <r>   -13.3315     0.0000   112.0000 </r>
       <r>   -13.2176     0.0000   112.0000 </r>
       <r>   -13.1037     0.0000   112.0000 </r>
       <r>   -12.9899     0.0000   112.0000 </r>
       <r>   -12.8760     0.0000   112.0000 </r>
       <r>   -12.7621     0.0000   112.0000 </r>
       <r>   -12.6483     0.0000   112.0000 </r>
       <r>   -12.5344     0.0000   112.0000 </r>
       <r>   -12.4205     0.0000   112.0000 </r>
       <r>   -12.3066     0.0000   112.0000 </r>
       <r>   -12.1928     0.0000   112.0000 </r>
       <r>   -12.0789     0.0000   112.0000 </r>
       <r>   -11.9650     0.0000   112.0000 </r>
       <r>   -11.8512     0.0000   112.0000 </r>
       <r>   -11.7373     0.0000   112.0000 </r>
       <r>   -11.6234     0.0000   112.0000 </r>
       <r>   -11.5096     0.0000   112.0000 </r>
       <r>   -11.3957     0.0000   112.0000 </r>
       <r>   -11.2818     0.0000   112.0000 </r>
       <r>   -11.1680     0.0000   112.0000 </r>
       <r>   -11.0541     0.0000   112.0000 </r>
       <r>   -10.9402     0.0000   112.0000 </r>
       <r>   -10.8263     0.0000   112.0000 </r>
       <r>   -10.7125     0.0000   112.0000 </r>
       <r>   -10.5986     0.0000   112.0000 </r>
       <r>   -10.4847     0.0000   112.0000 </r>
       <r>   -10.3709     0.0000   112.0000 </r>
       <r>   -10.2570     0.0000   112.0000 </r>
       <r>   -10.1431     0.0000   112.0000 </r>
       <r>   -10.0293     0.0000   112.0000 </r>
       <r>    -9.9154     0.0000   112.0000 </r>
       <r>    -9.8015     0.0000   112.0000 </r>
       <r>    -9.6877     0.0000   112.0000 </r>
       <r>    -9.5738     0.0000   112.0000 </r>
       <r>    -9.4599     0.0000   112.0000 </r>
       <r>    -9.3460     0.0000   112.0000 </r>
       <r>    -9.2322     0.0000   112.0000 </r>
       <r>    -9.1183     0.0000   112.0000 </r>
       <r>    -9.0044     0.0000   112.0000 </r>
       <r>    -8.8906     0.0000   112.0000 </r>
       <r>    -8.7767     0.0000   112.0000 </r>
       <r>    -8.6628     0.0000   112.0000 </r>
       <r>    -8.5490     0.0000   112.0000 </r>
       <r>    -8.4351     0.0000   112.0000 </r>
       <r>    -8.3212     0.0000   112.0000 </r>
       <r>    -8.2073     0.0000   112.0000 </r>
       <r>    -8.0935     0.0000   112.0000 </r>
       <r>    -7.9796     0.0000   112.0000 </r>
       <r>    -7.8657     0.0000   112.0000 </r>
       <r>    -7.7519     0.0000   112.0000 </r>
       <r>    -7.6380     0.0000   112.0000 </r>
       <r>    -7.5241     0.0000   112.0000 </r>
       <r>    -7.4103     0.0000   112.0000 </r>
       <r>    -7.2964     0.0000   112.0000 </r>
       <r>    -7.1825     0.0000   112.0000 </r>
       <r>    -7.0687     0.0000   112.0000 </r>
       <r>    -6.9548     0.0000   112.0000 </r>
       <r>    -6.8409     0.0000   112.0000 </r>
       <r>    -6.7270     0.0000   112.0000 </r>
       <r>    -6.6132     0.0000   112.0000 </r>
       <r>    -6.4993     0.0000   112.0000 </r>
       <r>    -6.3854     0.0000   112.0000 </r>
       <r>    -6.2716     0.0000   112.0000 </r>
       <r>    -6.1577     0.0000   112.0000 </r>
       <r>    -6.0438     0.0000   112.0000 </r>
       <r>    -5.9300     0.0000   112.0000 </r>
       <r>    -5.8161     0.0000   112.0000 </r>
       <r>    -5.7022     0.0000   112.0000 </r>
       <r>    -5.5884     0.0000   112.0000 </r>
       <r>    -5.4745     0.0000   112.0000 </r>
       <r>    -5.3606     0.0000   112.0000 </r>
       <r>    -5.2467     0.0000   112.0000 </r>
       <r>    -5.1329     0.0000   112.0000 </r>
       <r>    -5.0190     5.2748   112.2032 </r>
       <r>    -4.9051     6.9499   113.1780 </r>
       <r>    -4.7913    24.1131   115.1075 </r>
       <r>    -4.6774    32.7524   117.8120 </r>
       <r>    -4.5635    17.8938   122.7303 </r>
       <r>    -4.4497     0.0000   124.0000 </r>
       <r>    -4.3358     0.0000   124.0000 </r>
       <r>    -4.2219     0.0000   124.0000 </r>
       <r>    -4.1080     0.0000   124.0000 </r>
       <r>    -3.9942     0.0000   124.0000 </r>
       <r>    -3.8803     0.0000   124.0000 </r>
       <r>    -3.7664     0.0000   124.0000 </r>
       <r>    -3.6526     0.0000   124.0000 </r>
       <r>    -3.5387     0.0000   124.0000 </r>
       <r>    -3.4248     0.0000   124.0000 </r>
       <r>    -3.3110     0.0000   124.0000 </r>
       <r>    -3.1971     0.0000   124.0000 </r>
       <r>    -3.0832    10.5357   124.1896 </r>
       <r>    -2.9694    19.0490   126.9025 </r>
       <r>    -2.8555     6.7697   127.9823 </r>
       <r>    -2.7416    58.3040   131.4533 </r>
       <r>    -2.6277    21.4526   136.4795 </r>
       <r>    -2.5139    28.0696   139.7982 </r>
       <r>    -2.4000    26.8930   143.8019 </r>
       <r>    -2.2861    34.8703   148.9911 </r>
       <r>    -2.1723    49.3316   154.1264 </r>
       <r>    -2.0584     0.0000   160.0000 </r>
       <r>    -1.9445     0.0000   160.0000 </r>
       <r>    -1.8307     0.0000   160.0000 </r>
       <r>    -1.7168     0.0000   160.0000 </r>
       <r>    -1.6029     0.0000   160.0000 </r>
       <r>    -1.4891     0.0000   160.0000 </r>
       <r>    -1.3752     0.0000   160.0000 </r>
       <r>    -1.2613     0.0000   160.0000 </r>
       <r>    -1.1474     0.0000   160.0000 </r>
       <r>    -1.0336     0.0000   160.0000 </r>
       <r>    -0.9197    93.8868   161.1362 </r>
       <r>    -0.8058    14.5369   164.1149 </r>
       <r>    -0.6920    52.0661   169.7045 </r>
       <r>    -0.5781    31.2836   172.4103 </r>
       <r>    -0.4642    28.8242   177.3731 </r>
       <r>    -0.3504    33.9981   182.4213 </r>
       <r>    -0.2365    55.7709   188.8513 </r>
       <r>    -0.1226    56.7253   194.3018 </r>
       <r>    -0.0087    43.4425   201.3637 </r>
       <r>     0.1051    33.8107   205.5797 </r>
       <r>     0.2190    42.9956   208.5458 </r>
       <r>     0.3329    21.4747   212.9929 </r>
       <r>     0.4467    96.6790   218.2342 </r>
       <r>     0.5606    33.4247   223.2545 </r>
       <r>     0.6745    29.8812   226.7891 </r>
       <r>     0.7883    27.7321   230.0267 </r>
       <r>     0.9022     2.0619   231.9851 </r>
       <r>     1.0161     0.0000   232.0000 </r>
       <r>     1.1299     0.0000   232.0000 </r>
       <r>     1.2438     0.0000   232.0000 </r>
       <r>     1.3577    59.8686   236.0186 </r>
       <r>     1.4716    29.6991   242.3048 </r>
       <r>     1.5854    35.5833   247.8775 </r>
       <r>     1.6993    28.1615   253.8992 </r>
       <r>     1.8132    37.7567   259.8011 </r>
       <r>     1.9270    12.8393   262.9009 </r>
       <r>     2.0409    19.7870   266.9902 </r>
       <r>     2.1548     0.0000   268.0000 </r>
       <r>     2.2686     0.0000   268.0000 </r>
       <r>     2.3825     0.0000   268.0000 </r>
       <r>     2.4964     0.0000   268.0000 </r>
       <r>     2.6102     0.0000   268.0000 </r>
       <r>     2.7241     0.0000   268.0000 </r>
       <r>     2.8380     0.0000   268.0000 </r>
       <r>     2.9519     0.0000   268.0000 </r>
       <r>     3.0657     0.0000   268.0000 </r>
       <r>     3.1796     0.0000   268.0000 </r>
       <r>     3.2935     0.0000   268.0000 </r>
       <r>     3.4073     0.0000   268.0000 </r>
       <r>     3.5212     0.0000   268.0000 </r>
       <r>     3.6351     0.0000   268.0000 </r>
       <r>     3.7489     0.0000   268.0000 </r>
       <r>     3.8628     0.0000   268.0000 </r>
       <r>     3.9767     0.0000   268.0000 </r>
       <r>     4.0906     0.0000   268.0000 </r>
       <r>     4.2044     0.0000   268.0000 </r>
       <r>     4.3183     0.0000   268.0000 </r>
       <r>     4.4322     0.0000   268.0000 </r>
       <r>     4.5460     0.0000   268.0000 </r>
       <r>     4.6599     0.0000   268.0000 </r>
       <r>     4.7738     0.0000   268.0000 </r>
       <r>     4.8876     0.0000   268.0000 </r>
       <r>     5.0015     0.0000   268.0000 </r>
       <r>     5.1154     0.0000   268.0000 </r>
       <r>     5.2292     0.0000   268.0000 </r>
       <r>     5.3431     0.0000   268.0000 </r>
       <r>     5.4570     0.0000   268.0000 </r>
       <r>     5.5709     0.0000   268.0000 </r>
       <r>     5.6847     0.0000   268.0000 </r>
       <r>     5.7986     0.0000   268.0000 </r>
       <r>     5.9125     0.0000   268.0000 </r>
       <r>     6.0263     0.0000   268.0000 </r>
       <r>     6.1402     0.0000   268.0000 </r>
       <r>     6.2541     0.0000   268.0000 </r>
       <r>     6.3679     0.0000   268.0000 </r>
       <r>     6.4818     0.0000   268.0000 </r>
       <r>     6.5957     0.0000   268.0000 </r>
       <r>     6.7096     0.0000   268.0000 </r>
       <r>     6.8234     0.0000   268.0000 </r>
       <r>     6.9373     0.0000   268.0000 </r>
       <r>     7.0512     0.0000   268.0000 </r>
       <r>     7.1650     0.0000   268.0000 </r>
       <r>     7.2789     0.0000   268.0000 </r>
       <r>     7.3928     0.0000   268.0000 </r>
       <r>     7.5066     0.0000   268.0000 </r>
       <r>     7.6205     0.0000   268.0000 </r>
       <r>     7.7344     0.0697   268.0019 </r>
       <r>     7.8482     0.3958   268.0259 </r>
       <r>     7.9621     0.9013   268.1011 </r>
       <r>     8.0760     1.2670   268.2253 </r>
       <r>     8.1899     1.7319   268.3927 </r>
       <r>     8.3037     3.4869   268.6564 </r>
       <r>     8.4176     9.2665   269.3043 </r>
       <r>     8.5315     5.3080   270.1739 </r>
       <r>     8.6453     5.9814   270.8118 </r>
       <r>     8.7592    30.6496   273.1056 </r>
       <r>     8.8731    16.9186   275.5973 </r>
       <r>     8.9869    20.7925   278.4976 </r>
       <r>     9.1008    20.9166   280.5844 </r>
       <r>     9.2147    80.3241   283.2058 </r>
       <r>     9.3285    62.1793   288.9292 </r>
       <r>     9.4424    41.0346   294.7108 </r>
       <r>     9.5563    29.5186   300.1121 </r>
       <r>     9.6702    18.8504   304.8798 </r>
       <r>     9.7840    65.0135   312.1241 </r>
       <r>     9.8979    42.1275   317.6632 </r>
       <r>    10.0118    45.8001   324.0586 </r>
       <r>    10.1256    10.8340   326.9371 </r>
       <r>    10.2395    35.6378   331.2025 </r>
       <r>    10.3534    34.3519   337.6937 </r>
       <r>    10.4672    93.1816   343.5637 </r>
       <r>    10.5811    27.5104   349.0995 </r>
       <r>    10.6950    58.3861   354.2415 </r>
       <r>    10.8089    91.2817   359.4463 </r>
       <r>    10.9227    26.3436   363.7431 </r>
       <r>    11.0366    20.1065   365.9490 </r>
       <r>    11.1505    19.0791   369.3374 </r>
       <r>    11.2643    41.6691   371.7063 </r>
       <r>    11.3782    18.3119   374.2553 </r>
       <r>    11.4921    15.0999   376.4511 </r>
       <r>    11.6059    10.2380   378.0444 </r>
       <r>    11.7198    14.4787   379.3190 </r>
       <r>    11.8337    22.3516   381.6441 </r>
       <r>    11.9475    18.1574   383.6747 </r>
       <r>    12.0614     0.0000   384.0000 </r>
       <r>    12.1753     0.0000   384.0000 </r>
       <r>    12.2892     0.0000   384.0000 </r>
       <r>    12.4030     0.0000   384.0000 </r>
       <r>    12.5169     0.0000   384.0000 </r>
       <r>    12.6308     0.0000   384.0000 </r>
       <r>    12.7446     0.0000   384.0000 </r>
       <r>    12.8585     0.0000   384.0000 </r>
       <r>    12.9724     0.0000   384.0000 </r>
       <r>    13.0862     0.0000   384.0000 </r>
       <r>    13.2001     0.0000   384.0000 </r>
       <r>    13.3140     0.0000   384.0000 </r>
       <r>    13.4278     0.0000   384.0000 </r>
       <r>    13.5417     0.0000   384.0000 </r>
      </set>
     </set>
    </array>
   </total>
  </dos>
 </calculation>
 <structure name="finalpos" >
  <crystal>
   <varray name="basis" >
    <v>       8.18103371      -4.72332201       0.00000000 </v>
    <v>      -0.00000000       9.44664403       0.00000000 </v>
    <v>       0.00000000       0.00000000       6.92579265 </v>
   </varray>
   <i name="volume">    535.24820248 </i>
   <varray name="rec_basis" >
    <v>       0.12223394       0.00000000       0.00000000 </v>
    <v>       0.06111697       0.10585770       0.00000000 </v>
    <v>       0.00000000       0.00000000       0.14438781 </v>
   </varray>
  </crystal>
  <varray name="positions" >
   <v>       0.32639724       0.48473462       0.25000000 </v>
   <v>       0.48473462       0.15833738       0.75000000 </v>
   <v>       0.84166262       0.32639724       0.75000000 </v>
   <v>       0.15833738       0.67360276       0.25000000 </v>
   <v>       0.51526538       0.84166262       0.25000000 </v>
   <v>       0.67360276       0.51526538       0.75000000 </v>
   <v>       0.58834261       0.46645753       0.25000000 </v>
   <v>       0.46645753       0.87811492       0.75000000 </v>
   <v>       0.12188508       0.58834261       0.75000000 </v>
   <v>       0.87811492       0.41165739       0.25000000 </v>
   <v>       0.53354247       0.12188508       0.25000000 </v>
   <v>       0.41165739       0.53354247       0.75000000 </v>
   <v>       0.34060935       0.25578807       0.06968621 </v>
   <v>       0.25578807       0.91517871       0.56968621 </v>
   <v>       0.34060935       0.25578807       0.43031379 </v>
   <v>       0.08482129       0.34060935       0.56968621 </v>
   <v>       0.91517871       0.65939065       0.43031379 </v>
   <v>       0.08482129       0.34060935       0.93031379 </v>
   <v>       0.74421193       0.08482129       0.43031379 </v>
   <v>       0.74421193       0.08482129       0.06968621 </v>
   <v>       0.25578807       0.91517871       0.93031379 </v>
   <v>       0.65939065       0.74421193       0.56968621 </v>
   <v>       0.65939065       0.74421193       0.93031379 </v>
   <v>       0.91517871       0.65939065       0.06968621 </v>
   <v>       0.39768214       0.36841832       0.25000000 </v>
   <v>       0.36841832       0.97073619       0.75000000 </v>
   <v>       0.02926381       0.39768214       0.75000000 </v>
   <v>       0.97073619       0.60231786       0.25000000 </v>
   <v>       0.63158168       0.02926381       0.25000000 </v>
   <v>       0.60231786       0.63158168       0.75000000 </v>
   <v>       0.33333333       0.66666667       0.00080485 </v>
   <v>       0.66666667       0.33333333       0.50080485 </v>
   <v>       0.33333333       0.66666667       0.49919515 </v>
   <v>       0.66666667       0.33333333       0.99919515 </v>
   <v>       0.24336292       0.99625967       0.25000000 </v>
   <v>       0.99625967       0.75289675       0.75000000 </v>
   <v>       0.24710325       0.24336292       0.75000000 </v>
   <v>       0.75289675       0.75663708       0.25000000 </v>
   <v>       0.00374033       0.24710325       0.25000000 </v>
   <v>       0.75663708       0.00374033       0.75000000 </v>
   <v>       0.00000000       0.00000000       0.25000000 </v>
   <v>       0.00000000       0.00000000       0.75000000 </v>
  </varray>
 </structure>
</modeling>
