 *******************************************************************************
 *                                                                             *
 *                               CRYSTAL23                                     *
 *                      public : 1.0.1 - October 2022                          *
 *                       HTTP://WWW.CRYSTAL.UNITO.IT                           *
 *                                                                             *
 *                              MAIN AUTHORS                                   *
 *                                                                             *
 *  R. DOVESI(1,11), V.R. SAUNDERS(2), C. ROETTI(1,11), R. ORLANDO(1,11),      *
 *  C.M. ZICOVICH-WILSON(1,3), F. PASCALE(4), B. CIVALLERI(1,11),              *
 *  K. DOLL(5), N.M. HARRISON(6), I.J. BUSH(7), Ph. D'ARCO(8),                 *
 *  M. LLUNELL(9), M. CAUSA'(10), Y. NOEL(8), L. MASCHIO(1,11), A. ERBA(1,11)  *
 *  M. RE'RAT(14), S. CASASSA(1,11), B.G. SEARLE(2), J.K. DESMARAIS(1)         *
 *                                                                             *
 *        CONTRIBUTIONS TO THE CODE HAVE ALSO BEEN GIVEN BY                    *
 *                                                                             *
 *  M. FERRABONE(1,11), M. DE LA PIERRE(1,11), M. FERRERO(1,11),               *
 *  J. BAIMA(1,11), E. ALBANESE(1,11), M.F. PEINTINGER(12), R. BAST(13),       *
 *  B. KIRTMAN(15), V. LACIVITA(1,11), R. DEMICHELIS(1,16)                     *
 *  G. BRANDEBURG(17), S. SALUSTRO(1,11), G. SANSONE(1,11)                     *
 *  M.T. RUGGIERO(18), L.E. DAGA(1), L. DONA'(1), A. COSSARD(1)                *
 *                                                                             *
 * (1) THEORETICAL CHEMISTRY GROUP - UNIVERSITA' DI TORINO - TORINO (ITALY)    *
 * (2) SCIENTIFIC COMPUTING DEPARTMENT - STFC DARESBURY (UK)                   *
 * (3) UNIVERSIDAD AUTONOMA DEL ESTADO DE MORELOS - CUERNAVACA (MEXICO)        *
 * (4) UNIVERSITE' DE LORRAINE - NANCY (FRANCE)                                *
 * (5) UNIVERSITAET STUTTGART- STUTTGART (GERMANY)                             *
 * (6) IMPERIAL COLLEGE - LONDON (UK)                                          *
 * (7) SCIENTIFIC COMPUTING DEPARTMENT - STFC RAL (UK)                         *
 * (8) UPMC - SORBONNE UNIVERSITES - PARIS (FRANCE)                            *
 * (9) UNIVERSIDAD DE BARCELONA - BARCELONA (SPAIN)                            *
 *(10) UNIVERSITA' DI NAPOLI "FEDERICO II" - NAPOLI (ITALY)                    *
 *(11) NIS - NANOSTRUCTURED INTERFACES AND SURFACES - TORINO (ITALY)           *
 *(12) MPI FUER CHEMISCHE ENERGIEKONVERSION - MUELHEIM AN DER RUHR (GERMANY)   *
 *(13) UNIVERSITY OF TROMSO - TROMSO (NORWAY)                                  *
 *(14) UNIVERSITE' DE PAU ET DES PAYS DE L'ADOUR - PAU (FRANCE)                *
 *(15) UNIVERSITY OF CALIFORNIA SANTA BARBARA - SANTA BARBARA (USA)            *
 *(16) CURTIN UNIVERSITY - PERTH (AUSTRALIA)                                   *
 *(17) UNIVERSITY COLLEGE LONDON - LONDON (UK)                                 *
 *(18) UNIVERSITY OF VERMONT - BURLINGTON (USA)                                *
 *                                                                             *
 *******************************************************************************
 EEEEEEEEEE STARTING  DATE 16 07 2024 TIME 15:18:35.1
 QUARTZ ALFA (init. geom.: expt.)  HF base 2d                                    

 CRYSTAL CALCULATION
 (INPUT ACCORDING TO THE INTERNATIONAL TABLES FOR X-RAY CRYSTALLOGRAPHY)
 CRYSTAL FAMILY                       :  HEXAGONAL   
 CRYSTAL CLASS  (GROTH - 1921)        :  TRIGONAL TRAPEZOHEDRAL               

 SPACE GROUP (NONCENTROSYMMETRIC)     :  P 32 2 1        

 SHIFT OF THE ORIGIN                  :      0      0    2/3

 LATTICE PARAMETERS  (ANGSTROMS AND DEGREES) - CONVENTIONAL CELL
        A           B           C        ALPHA        BETA       GAMMA
     4.91458     4.91458     5.40486    90.00000    90.00000   120.00000


 NUMBER OF IRREDUCIBLE ATOMS IN THE CONVENTIONAL CELL:    2

 INPUT COORDINATES

 ATOM AT. N.              COORDINATES
   1  14     4.705925485842E-01  7.248269291405E-17  0.000000000000E+00
   2   8     4.151440131428E-01  2.670973406544E-01  1.199927007933E-01

 *******************************************************************************

 << INFORMATION >>: FROM NOW ON, ALL COORDINATES REFER TO THE PRIMITIVE CELL

 *******************************************************************************

 LATTICE PARAMETERS  (ANGSTROMS AND DEGREES) - PRIMITIVE CELL
       A          B          C        ALPHA      BETA     GAMMA        VOLUME
    4.91458    4.91458    5.40486    90.00000  90.00000 120.00000    113.054442

 COORDINATES OF THE EQUIVALENT ATOMS (FRACTIONAL UNITS)

 N. ATOM EQUIV AT. N.          X                  Y                  Z

   1   1   1   14 SI    4.70592548584E-01  7.24826929140E-17  0.00000000000E+00
   2   1   2   14 SI   -7.24826929140E-17  4.70592548584E-01 -3.33333333333E-01
   3   1   3   14 SI   -4.70592548584E-01 -4.70592548584E-01  3.33333333333E-01

   4   2   1    8 O     4.15144013143E-01  2.67097340654E-01  1.19992700793E-01
   5   2   2    8 O    -2.67097340654E-01  1.48046672488E-01 -2.13340632540E-01
   6   2   3    8 O    -1.48046672488E-01 -4.15144013143E-01  4.53326034127E-01
   7   2   4    8 O     1.48046672488E-01 -2.67097340654E-01 -1.19992700793E-01
   8   2   5    8 O    -4.15144013143E-01 -1.48046672488E-01  2.13340632540E-01
   9   2   6    8 O     2.67097340654E-01  4.15144013143E-01 -4.53326034127E-01

 NUMBER OF SYMMETRY OPERATORS         :    6
 *******************************************************************************
 * GEOMETRY EDITING - INPUT COORDINATES ARE GIVEN IN ANGSTROM         
 *******************************************************************************

 GEOMETRY NOW FULLY CONSISTENT WITH THE GROUP

 FRQFRQFRQFRQFRQFRQFRQFRQFRQFRQFRQFRQFRQFRQFRQFRQFRQFRQFRQFRQFRQFRQFRQFRQFRQFRQ

                       FREQUENCY CALCULATION

 INFORMATION **** INPFREQ **** REMOVING ECKART CONDITIONS TO THE HESSIAN

 GCALCO - MAX INDICES DIRECT LATTICE VECTOR    16    16    12
 NO.OF VECTORS CREATED 6999 STARS  380 RMAX   108.01313 BOHR

 GEOMETRY FOR WAVE FUNCTION - DIMENSIONALITY OF THE SYSTEM    3
 (NON PERIODIC DIRECTION: LATTICE PARAMETER FORMALLY SET TO 500)
 *******************************************************************************
 LATTICE PARAMETERS (ANGSTROMS AND DEGREES) - BOHR = 0.5291772083 ANGSTROM
 PRIMITIVE CELL - CENTRING CODE 1/0 VOLUME=   113.054442 - DENSITY  2.642 g/cm^3
         A              B              C           ALPHA      BETA       GAMMA 
     4.91457896     4.91457896     5.40485895    90.000000  90.000000 120.000000
 *******************************************************************************
 ATOMS IN THE ASYMMETRIC UNIT    2 - ATOMS IN THE UNIT CELL:    9
     ATOM                 X/A                 Y/B                 Z/C    
 *******************************************************************************
      1 T  14 SI    4.705925485842E-01  5.507258086499E-17  0.000000000000E+00
      2 F  14 SI    2.292042381201E-17  4.705925485842E-01 -3.333333333333E-01
      3 F  14 SI   -4.705925485842E-01 -4.705925485842E-01  3.333333333333E-01
      4 T   8 O     4.151440131428E-01  2.670973406544E-01  1.199927007933E-01
      5 F   8 O    -2.670973406544E-01  1.480466724884E-01 -2.133406325400E-01
      6 F   8 O    -1.480466724884E-01 -4.151440131428E-01  4.533260341266E-01
      7 F   8 O     1.480466724884E-01 -2.670973406544E-01 -1.199927007933E-01
      8 F   8 O    -4.151440131428E-01 -1.480466724884E-01  2.133406325400E-01
      9 F   8 O     2.670973406544E-01  4.151440131428E-01 -4.533260341266E-01

 T = ATOM BELONGING TO THE ASYMMETRIC UNIT

 ****    6 SYMMOPS - TRANSLATORS IN FRACTIONAL UNITS
 **** MATRICES AND TRANSLATORS IN THE CRYSTALLOGRAPHIC REFERENCE FRAME
   V INV                    ROTATION MATRICES                   TRANSLATORS
   1   1  1.00  0.00  0.00  0.00  1.00  0.00  0.00  0.00  1.00  0.00  0.00  0.00
   2   3 -0.00 -1.00  0.00  1.00 -1.00  0.00  0.00  0.00  1.00  0.00  0.00  0.67
   3   2 -1.00  1.00  0.00 -1.00  0.00  0.00  0.00  0.00  1.00  0.00  0.00  0.33
   4   4  1.00 -1.00  0.00  0.00 -1.00  0.00  0.00  0.00 -1.00  0.00  0.00  0.00
   5   5 -1.00  0.00  0.00 -1.00  1.00  0.00  0.00  0.00 -1.00  0.00  0.00  0.33
   6   6  0.00  1.00  0.00  1.00  0.00  0.00  0.00  0.00 -1.00  0.00  0.00  0.67

 DIRECT LATTICE VECTORS CARTESIAN COMPONENTS (ANGSTROM)
          X                    Y                    Z
   0.425615022826E+01  -0.245728948000E+01   0.000000000000E+00
   0.000000000000E+00   0.491457896000E+01   0.000000000000E+00
   0.000000000000E+00   0.000000000000E+00   0.540485895000E+01


 CARTESIAN COORDINATES - PRIMITIVE CELL
 *******************************************************************************
 *      ATOM          X(ANGSTROM)         Y(ANGSTROM)         Z(ANGSTROM)
 *******************************************************************************
    1    14 SI    2.002912583076E+00 -1.156382119002E+00  0.000000000000E+00
    2    14 SI    9.755276703939E-17  2.312764238005E+00 -1.801619650000E+00
    3    14 SI   -2.002912583076E+00 -1.156382119002E+00  1.801619650000E+00
    4     8 O     1.766915286300E+00  2.925419544713E-01  6.485436228173E-01
    5     8 O    -1.136806407395E+00  1.383922547036E+00 -1.153076027183E+00
    6     8 O    -6.301088789053E-01 -1.676464501507E+00  2.450163272817E+00
    7     8 O     6.301088789053E-01 -1.676464501507E+00 -6.485436228173E-01
    8     8 O    -1.766915286300E+00  2.925419544713E-01  1.153076027183E+00
    9     8 O     1.136806407395E+00  1.383922547036E+00 -2.450163272817E+00

 *******************************************************************************
 LOCAL ATOMIC FUNCTIONS BASIS SET
 *******************************************************************************
   ATOM   X(AU)   Y(AU)   Z(AU)  N. TYPE  EXPONENT  S COEF   P COEF   D/F/G COEF
 *******************************************************************************
   1 SI   3.785  -2.185   0.000
                                  1 S  
                                         1.612E+04 1.959E-03 0.000E+00 0.000E+00
                                         2.426E+03 1.493E-02 0.000E+00 0.000E+00
                                         5.539E+02 7.285E-02 0.000E+00 0.000E+00
                                         1.563E+02 2.461E-01 0.000E+00 0.000E+00
                                         5.007E+01 4.859E-01 0.000E+00 0.000E+00
                                         1.702E+01 3.250E-01 0.000E+00 0.000E+00
                           2-     5 SP 
                                         2.927E+02-2.781E-03 4.438E-03 0.000E+00
                                         6.987E+01-3.571E-02 3.267E-02 0.000E+00
                                         2.234E+01-1.150E-01 1.347E-01 0.000E+00
                                         8.150E+00 9.356E-02 3.287E-01 0.000E+00
                                         3.135E+00 6.030E-01 4.496E-01 0.000E+00
                                         1.225E+00 4.190E-01 2.614E-01 0.000E+00
                           6-     9 SP 
                                         1.079E+00-3.761E-01 6.710E-02 0.000E+00
                                         3.024E-01 1.252E+00 9.569E-01 0.000E+00
                          10-    13 SP 
                                         9.000E-02 1.000E+00 1.000E+00 0.000E+00
                          14-    18 D  
                                         2.560E+00 0.000E+00 0.000E+00 1.000E+00
                          19-    23 D  
                                         5.400E-01 0.000E+00 0.000E+00 1.000E+00
   2 SI   0.000   4.370  -3.405
   3 SI  -3.785  -2.185   3.405
   4 O    3.339   0.553   1.226
                                 70 S  
                                         5.485E+03 1.831E-03 0.000E+00 0.000E+00
                                         8.252E+02 1.395E-02 0.000E+00 0.000E+00
                                         1.880E+02 6.845E-02 0.000E+00 0.000E+00
                                         5.296E+01 2.327E-01 0.000E+00 0.000E+00
                                         1.690E+01 4.702E-01 0.000E+00 0.000E+00
                                         5.800E+00 3.585E-01 0.000E+00 0.000E+00
                          71-    74 SP 
                                         1.554E+01-1.108E-01 7.087E-02 0.000E+00
                                         3.600E+00-1.480E-01 3.398E-01 0.000E+00
                                         1.014E+00 1.131E+00 7.272E-01 0.000E+00
                          75-    78 SP 
                                         2.900E-01 1.000E+00 1.000E+00 0.000E+00
                          79-    83 D  
                                         2.000E+00 0.000E+00 0.000E+00 1.000E+00
                          84-    88 D  
                                         4.100E-01 0.000E+00 0.000E+00 1.000E+00
   5 O   -2.148   2.615  -2.179
   6 O   -1.191  -3.168   4.630
   7 O    1.191  -3.168  -1.226
   8 O   -3.339   0.553   2.179
   9 O    2.148   2.615  -4.630
 INFORMATION **** SET_MPP **** PCRYSTAL CALCULATION
 INFORMATION **** READM2 **** NEW DEFAULT: FOCK/KS MATRIX MIXING SET TO 30 %
 INFORMATION **** READM2 **** NEW DEFAULT: FULL DIRECT SCF MODE
 INFORMATION **** READM2 **** NEW DEFAULT: COULOMB BIPOLAR BUFFER SET TO 32 Mb
 INFORMATION **** READM2 **** NEW DEFAULT: EXCHANGE BIPOLAR BUFFER SET TO 32 Mb
 INFORMATION **** READM2 **** FULL DIRECT SCF (MONO AND BIEL INT) SELECTED
 INFORMATION **** LEVSHIFT **** LEVEL SHIFTER ACTIVE
 INFORMATION **** TOLDEE **** SCF TOL ON TOTAL ENERGY SET TO           9
 INFORMATION **** MAXCYCLE **** MAX NUMBER OF SCF CYCLES SET TO         200
 WARNING **** READM2 **** PROBABLE LOSS IN FREQCALC ACCURACY; SCF TOL LT          10
 INFORMATION **** READM2 **** LEVSHIFT DISABLED BECAUSE NOT COMPATIBLE WITH DIIS
 INFORMATION **** READM2 **** TO MAKE LEVSHIFT EFFECTIVE YOU MUST SET NODIIS
 *******************************************************************************
 N. OF ATOMS PER CELL         9  COULOMB OVERLAP TOL         (T1) 10**   -6
 NUMBER OF SHELLS            48  COULOMB PENETRATION TOL     (T2) 10**   -6
 NUMBER OF AO               183  EXCHANGE OVERLAP TOL        (T3) 10**   -6
 N. OF ELECTRONS PER CELL    90  EXCHANGE PSEUDO OVP (F(G))  (T4) 10**   -6
 CORE ELECTRONS PER CELL     42  EXCHANGE PSEUDO OVP (P(G))  (T5) 10**  -12
 N. OF SYMMETRY OPERATORS     6  POLE ORDER IN MONO ZONE                  4
 *******************************************************************************
 TYPE OF CALCULATION :  RESTRICTED CLOSED SHELL
 HARTREE-FOCK HAMILTONIAN

 CAPPA:IS1  3;IS2  3;IS3  3; K PTS MONK NET   7; SYMMOPS:K SPACE  12;G SPACE   6

 *******************************************************************************
 MAX NUMBER OF SCF CYCLES     200  CONVERGENCE ON DELTAP        10**-19
 WEIGHT OF F(I) IN F(I+1)      30% CONVERGENCE ON ENERGY        10**- 9
 SHRINK. FACT.(MONKH.)    3  3  3  NUMBER OF K POINTS IN THE IBZ      7
 SHRINKING FACTOR(GILAT NET)    3  NUMBER OF K POINTS(GILAT NET)      7
 *******************************************************************************
 *** K POINTS COORDINATES (OBLIQUE COORDINATES IN UNITS OF IS =  3)
   1-R(  0  0  0)   2-C(  1  0  0)   3-C(  1  1  0)   4-C(  0  0  1)
   5-C(  1  0  1)   6-C(  2  0  1)   7-C(  1  1  1)

 DIRECT LATTICE VECTORS COMPON. (A.U.)     RECIP. LATTICE VECTORS COMPON. (A.U.) 
        X            Y            Z              X            Y            Z
    8.0429583   -4.6436041    0.0000000      0.7812033    0.0000000    0.0000000
    0.0000000    9.2872083    0.0000000      0.3906016    0.6765419    0.0000000
    0.0000000    0.0000000   10.2137032      0.0000000    0.0000000    0.6151721

 DISK SPACE FOR EIGENVECTORS (FTN 10)      435357 REALS

 SYMMETRY ADAPTION OF THE BLOCH FUNCTIONS ENABLED
 TTTTTTTTTTTTTTTTTTTTTTTTTTTTTT gordsh1     TELAPSE        1.20 TCPU        0.19

 MATRIX SIZE: P(G)  300285, F(G)   50868, P(G) IRR   27704, F(G) IRR    9451
 MAX G-VECTOR INDEX FOR 1- AND 2-ELECTRON INTEGRALS 187

 TTTTTTTTTTTTTTTTTTTTTTTTTTTTTT INPUT       TELAPSE        1.20 TCPU        0.19

 NEIGHBORS OF THE NON-EQUIVALENT ATOMS

 N = NUMBER OF NEIGHBORS AT DISTANCE R
    ATOM  N     R/ANG      R/AU   NEIGHBORS (ATOM LABELS AND CELL INDICES)
   1 SI   2     1.6049     3.0328    4 O    0 0 0    7 O    0 0 0
   1 SI   2     1.6071     3.0371    5 O    1 0 0    8 O    1 0 0
   1 SI   4     3.0572     5.7774    2 SI   1 0 0    2 SI   0-1 0    3 SI   1 1 0
                                     3 SI   1 0 0
   1 SI   2     3.5200     6.6519    6 O    1 1 0    9 O    0-1 0
   1 SI   2     3.5337     6.6777    4 O    0-1 0    7 O    1 1 0
   1 SI   2     3.6341     6.8674    6 O    0 0 0    9 O    0 0 0

   4 O    1     1.6049     3.0328    1 SI   0 0 0
   4 O    1     1.6071     3.0371    3 SI   1 1 0
   4 O    2     2.6105     4.9331    8 O    1 1 0    8 O    1 0 0
   4 O    1     2.6176     4.9465    7 O    0 0 0
   4 O    1     2.6280     4.9662    9 O    0 0 1
   4 O    2     2.6345     4.9785    5 O    1 0 0    6 O    1 1 0


 SYMMETRY ALLOWED INTERNAL DEGREE(S) OF FREEDOM:   4
 TTTTTTTTTTTTTTTTTTTTTTTTTTTTTT SYMM        TELAPSE        1.20 TCPU        0.19
 TTTTTTTTTTTTTTTTTTTTTTTTTTTTTT INT_SCREEN  TELAPSE        1.20 TCPU        0.19

 *******************************************************************************
 *                                                                             *
 *                                                                             *
 *         FFFFF  RRRR   EEEE   QQQ   U   U  EEEE  N   N   CCC  Y   Y          *
 *         F      R   R  E     Q   Q  U   U  E     NN  N  C      Y Y           *
 *         FFF    RRRR   EEEE  Q   Q  U   U  EEEE  N N N  C       Y            *
 *         F      R   R  E     Q  QQ  U   U  E     N  NN  C       Y            *
 *         F      R   R  EEEE   QQ Q   UUU   EEEE  N   N   CCC    Y            *
 *                                                                             *
 *                                                                             *
 * CALCULATION OF PHONON FREQUENCIES AT THE GAMMA POINT.                       *
 *                                                                             *
 * SYMMETRY IS EXPLOITED TO BUILD THE TOTAL HESSIAN MATRIX.                    *
 * (F. PASCALE PHD THESIS TURIN-PARIS 2002)                                    *
 *                                                                             *
 *******************************************************************************


 * INTENSITIES COMPUTED VIA THE BERRY PHASE APPROACH                           *
 *                                                                             *
 * REFERENCES TO BE QUOTED WHEN USING THIS MODULE:                             *
 *                                                                             *
 * F. Pascale, C.M. Zicovich-Wilson, F. Lopez, B. Civalleri                    *
 * R. Orlando, R. Dovesi                                                       *
 * The calculation of the vibration frequencies of crystalline                 *
 * compounds and its implementation in the CRYSTAL code                        *
 * J. Comput. Chem. 25 (2004) 888-897                                          *
 *                                                                             *
 * C.M. Zicovich-Wilson, F. Pascale, C. Roetti, V.R. Saunders,                 *
 * R. Orlando, R. Dovesi                                                       *
 * The calculation of the vibration frequencies of alpha-quartz:               *
 * the effect of hamiltonian and basis set                                     *
 * J. Comput. Chem. 25 (2004) 1873-1881                                        *
 *******************************************************************************



 ATOMS ISOTOPIC MASS (AMU) FOR FREQUENCY CALCULATION 

    1 SI     27.9769    2 SI     27.9769    3 SI     27.9769    4 O      15.9949
    5 O      15.9949    6 O      15.9949    7 O      15.9949    8 O      15.9949
    9 O      15.9949

 INFORMATION CONCERNING THE SCF+GRADIENT CALCULATIONS REQUIRED FOR
 GENERATING FREQUENCIES. IN PRINCIPLE 3N+1 SCF + GRADIENT
 CALCULATIONS  ARE REQUIRED;
 FOR EACH OF THEM THE REMAINING POINT SYMMETRY IS INDICATED.
 POINT SYMMETRY PERMITS TO GENERATE GRADIENTS FOR DISPLACEMENT B 
 STARTING FROM THE GRADIENT GENERATED BY DISPLACEMENT A.

   N   LABEL SYMBOL DISPLACEMENT     SYM. 

   1     EQUILIBRIUM GEOMETRY            6

   2      1   SI           DX           1
   3      1   SI           DY        GENERATED FROM LINE X WITH OP   4
   4      1   SI           DZ           1
   5      4   O            DX           1
   6      4   O            DY           1
   7      4   O            DZ           1
 USE OF RESIDUAL SYMMETRY AFTER DISPLACEMENT

 NUMERICAL GRADIENT COMPUTED WITH A SINGLE DISPLACEMENT (+DX) FOR EACH
 CARTESIAN COORDINATE WITH RESPECT TO THE EQUILIBRIUM CONFIGURATION
 DX=  0.003 ANGSTROM
 NUMBER OF IRREDUCIBLE ATOMS                     2
 NUMBER OF SCF+GRADIENT CALCULATIONS             6

  ATOM  SYMOP  ORDER
    1      2      2
    4      1      1

 ATOM  : IRREDUCIBLE ATOM
 SYMOP : NUMBER OF SYMMETRY OPERATORS THAT DOESN'T MOVE THE IRREDUCIBLE ATOM
 ORDER : MAXIMUM ORDER AMONG THE OPERATORS OF THE IRREDUCIBLE ATOM

 *******************************************************************************


 GCALCO - MAX INDICES DIRECT LATTICE VECTOR    16    16    12
 NO.OF VECTORS CREATED 6999 STARS  380 RMAX   108.01313 BOHR

 CAPPA:IS1  3;IS2  3;IS3  3; K PTS MONK NET   7; SYMMOPS:K SPACE  12;G SPACE   6

 TTTTTTTTTTTTTTTTTTTTTTTTTTTTTT gordsh1     TELAPSE        1.21 TCPU        0.19

 MATRIX SIZE: P(G)  300285, F(G)   50868, P(G) IRR   27704, F(G) IRR    9451
 MAX G-VECTOR INDEX FOR 1- AND 2-ELECTRON INTEGRALS 187

 TTTTTTTTTTTTTTTTTTTTTTTTTTTTTT INPUT       TELAPSE        1.21 TCPU        0.19

 SYMMETRY ALLOWED INTERNAL DEGREE(S) OF FREEDOM:   4
 TTTTTTTTTTTTTTTTTTTTTTTTTTTTTT SYMM        TELAPSE        1.21 TCPU        0.19
 TTTTTTTTTTTTTTTTTTTTTTTTTTTTTT INT_SCREEN  TELAPSE        1.21 TCPU        0.19
 TTTTTTTTTTTTTTTTTTTTTTTTTTTTTT INT_CALC    TELAPSE        1.23 TCPU        0.21

 *******************************************************************************
 QUARTZ ALFA (init. geom.: expt.)  HF base 2d                                    
 CRYSTAL - SCF - TYPE OF CALCULATION :  RESTRICTED CLOSED SHELL
 *******************************************************************************

 CAPPA:IS1  3;IS2  3;IS3  3; K PTS MONK NET   7; SYMMOPS:K SPACE  12;G SPACE   6

 TTTTTTTTTTTTTTTTTTTTTTTTTTTTTT SDIK        TELAPSE        1.24 TCPU        0.22

 AAAAAAAAAAAAAAAAAAAAAAAAAAAAAAAAAAAAAAAAAAAAAAAAAAAAAAAAAAAAAAAAAAAAAAAAAAAAAAA
         ATOMIC WAVEFUNCTION(S)


 NUCLEAR CHARGE 14.0  SYMMETRY SPECIES            S    P
 N. ELECTRONS   14.0  NUMBER OF PRIMITIVE GTOS   15    9
                      NUMBER OF CONTRACTED GTOS   4    3
                      NUMBER OF CLOSED SHELLS     3    1
                      OPEN SHELL OCCUPATION       0    2

  ZNUC  SCFIT    TOTAL HF ENERGY   KINETIC ENERGY   VIRIAL THEOREM ACCURACY
  14.0    11    -2.888251470E+02  2.888201519E+02 -2.000017295E+00  3.5E-06

 NUCLEAR CHARGE  8.0  SYMMETRY SPECIES            S    P
 N. ELECTRONS    8.0  NUMBER OF PRIMITIVE GTOS   10    4
                      NUMBER OF CONTRACTED GTOS   3    2
                      NUMBER OF CLOSED SHELLS     2    0
                      OPEN SHELL OCCUPATION       0    4

  ZNUC  SCFIT    TOTAL HF ENERGY   KINETIC ENERGY   VIRIAL THEOREM ACCURACY
   8.0    12    -7.477553241E+01  7.466605824E+01 -2.001466184E+00  1.9E-06

 AAAAAAAAAAAAAAAAAAAAAAAAAAAAAAAAAAAAAAAAAAAAAAAAAAAAAAAAAAAAAAAAAAAAAAAAAAAAAAA

 TTTTTTTTTTTTTTTTTTTTTTTTTTTTTT MOQGAD      TELAPSE        1.24 TCPU        0.23
 TTTTTTTTTTTTTTTTTTTTTTTTTTTTTT SHELLXN     TELAPSE        4.11 TCPU        3.09
 TTTTTTTTTTTTTTTTTTTTTTTTTTTTTT MONMO3      TELAPSE        4.12 TCPU        3.10
 CYC   0 ETOT(AU) -1.319370625887E+03 DETOT -1.32E+03 tst  0.00E+00 PX  1.00E+00
 TTTTTTTTTTTTTTTTTTTTTTTTTTTTTT DIIS        TELAPSE        4.13 TCPU        3.11
 TTTTTTTTTTTTTTTTTTTTTTTTTTTTTT FDIK        TELAPSE        4.22 TCPU        3.20
 INSULATING STATE
 TOP OF VALENCE BANDS -    BAND     45; K    3; EIG -4.7755340E-01 AU
 TOP OF VALENCE BANDS -    BAND     45; K    1; EIG -4.9078316E-01 AU
 BOTTOM OF VIRTUAL BANDS - BAND     46; K    1; EIG -9.9235045E-02 AU
 INDIRECT ENERGY BAND GAP:  10.2946 eV
 TTTTTTTTTTTTTTTTTTTTTTTTTTTTTT PDIG        TELAPSE        4.23 TCPU        3.21
 TTTTTTTTTTTTTTTTTTTTTTTTTTTTTT MOQGAD      TELAPSE        4.23 TCPU        3.21
 TTTTTTTTTTTTTTTTTTTTTTTTTTTTTT SHELLXN     TELAPSE        7.25 TCPU        6.23
 TTTTTTTTTTTTTTTTTTTTTTTTTTTTTT MONMO3      TELAPSE        7.26 TCPU        6.24
 CYC   1 ETOT(AU) -1.316548750699E+03 DETOT  2.82E+00 tst  0.00E+00 PX  1.00E+00
 TTTTTTTTTTTTTTTTTTTTTTTTTTTTTT DIIS        TELAPSE        7.27 TCPU        6.24
 DIIS TEST: 0.81991E+00 AT SCF   CYCLE   1 - MIX   30 %
 TTTTTTTTTTTTTTTTTTTTTTTTTTTTTT FDIK        TELAPSE        7.31 TCPU        6.28
 INSULATING STATE
 TOP OF VALENCE BANDS -    BAND     45; K    3; EIG -4.1961461E-01 AU
 TOP OF VALENCE BANDS -    BAND     45; K    1; EIG -4.3350053E-01 AU
 BOTTOM OF VIRTUAL BANDS - BAND     46; K    1; EIG  9.6429875E-02 AU
 INDIRECT ENERGY BAND GAP:  14.0423 eV
 TTTTTTTTTTTTTTTTTTTTTTTTTTTTTT PDIG        TELAPSE        7.32 TCPU        6.29
 TTTTTTTTTTTTTTTTTTTTTTTTTTTTTT MOQGAD      TELAPSE        7.32 TCPU        6.30
 TTTTTTTTTTTTTTTTTTTTTTTTTTTTTT SHELLXN     TELAPSE       10.34 TCPU        9.31
 TTTTTTTTTTTTTTTTTTTTTTTTTTTTTT MONMO3      TELAPSE       10.35 TCPU        9.32
 CYC   2 ETOT(AU) -1.316688450399E+03 DETOT -1.40E-01 tst  1.42E-03 PX  7.20E-02
 TTTTTTTTTTTTTTTTTTTTTTTTTTTTTT DIIS        TELAPSE       10.35 TCPU        9.32
 DIIS TEST: 0.75119E-01 AT SCF   CYCLE   2 - DIIS ACTIVE - HISTORY:     2 CYCLES
 TTTTTTTTTTTTTTTTTTTTTTTTTTTTTT FDIK        TELAPSE       10.40 TCPU        9.37
 INSULATING STATE
 TOP OF VALENCE BANDS -    BAND     45; K    3; EIG -4.5661749E-01 AU
 TOP OF VALENCE BANDS -    BAND     45; K    1; EIG -4.6920962E-01 AU
 BOTTOM OF VIRTUAL BANDS - BAND     46; K    1; EIG  1.5731421E-01 AU
 INDIRECT ENERGY BAND GAP:  16.7059 eV
 TTTTTTTTTTTTTTTTTTTTTTTTTTTTTT PDIG        TELAPSE       10.40 TCPU        9.37
 TTTTTTTTTTTTTTTTTTTTTTTTTTTTTT MOQGAD      TELAPSE       10.41 TCPU        9.38
 TTTTTTTTTTTTTTTTTTTTTTTTTTTTTT SHELLXN     TELAPSE       13.44 TCPU       12.40
 TTTTTTTTTTTTTTTTTTTTTTTTTTTTTT MONMO3      TELAPSE       13.45 TCPU       12.41
 CYC   3 ETOT(AU) -1.316701780497E+03 DETOT -1.33E-02 tst  1.83E-03 PX  3.14E-02
 TTTTTTTTTTTTTTTTTTTTTTTTTTTTTT DIIS        TELAPSE       13.45 TCPU       12.41
 DIIS TEST: 0.43337E-02 AT SCF   CYCLE   3 - DIIS ACTIVE - HISTORY:     3 CYCLES
 TTTTTTTTTTTTTTTTTTTTTTTTTTTTTT FDIK        TELAPSE       13.50 TCPU       12.46
 INSULATING STATE
 TOP OF VALENCE BANDS -    BAND     45; K    3; EIG -4.4382128E-01 AU
 TOP OF VALENCE BANDS -    BAND     45; K    1; EIG -4.5646833E-01 AU
 BOTTOM OF VIRTUAL BANDS - BAND     46; K    1; EIG  1.6803577E-01 AU
 INDIRECT ENERGY BAND GAP:  16.6495 eV
 TTTTTTTTTTTTTTTTTTTTTTTTTTTTTT PDIG        TELAPSE       13.50 TCPU       12.47
 TTTTTTTTTTTTTTTTTTTTTTTTTTTTTT MOQGAD      TELAPSE       13.51 TCPU       12.47
 TTTTTTTTTTTTTTTTTTTTTTTTTTTTTT SHELLXN     TELAPSE       16.54 TCPU       15.50
 TTTTTTTTTTTTTTTTTTTTTTTTTTTTTT MONMO3      TELAPSE       16.55 TCPU       15.51
 CYC   4 ETOT(AU) -1.316702955212E+03 DETOT -1.17E-03 tst  3.51E-05 PX  8.71E-03
 TTTTTTTTTTTTTTTTTTTTTTTTTTTTTT DIIS        TELAPSE       16.56 TCPU       15.51
 DIIS TEST: 0.12009E-03 AT SCF   CYCLE   4 - DIIS ACTIVE - HISTORY:     4 CYCLES
 TTTTTTTTTTTTTTTTTTTTTTTTTTTTTT FDIK        TELAPSE       16.60 TCPU       15.55
 INSULATING STATE
 TOP OF VALENCE BANDS -    BAND     45; K    3; EIG -4.4486929E-01 AU
 TOP OF VALENCE BANDS -    BAND     45; K    1; EIG -4.5749974E-01 AU
 BOTTOM OF VIRTUAL BANDS - BAND     46; K    1; EIG  1.6736490E-01 AU
 INDIRECT ENERGY BAND GAP:  16.6597 eV
 TTTTTTTTTTTTTTTTTTTTTTTTTTTTTT PDIG        TELAPSE       16.61 TCPU       15.56
 TTTTTTTTTTTTTTTTTTTTTTTTTTTTTT MOQGAD      TELAPSE       16.61 TCPU       15.57
 TTTTTTTTTTTTTTTTTTTTTTTTTTTTTT SHELLXN     TELAPSE       19.65 TCPU       18.60
 TTTTTTTTTTTTTTTTTTTTTTTTTTTTTT MONMO3      TELAPSE       19.66 TCPU       18.61
 CYC   5 ETOT(AU) -1.316703015123E+03 DETOT -5.99E-05 tst  1.29E-06 PX  2.88E-03
 TTTTTTTTTTTTTTTTTTTTTTTTTTTTTT DIIS        TELAPSE       19.66 TCPU       18.61
 DIIS TEST: 0.10663E-04 AT SCF   CYCLE   5 - DIIS ACTIVE - HISTORY:     5 CYCLES
 TTTTTTTTTTTTTTTTTTTTTTTTTTTTTT FDIK        TELAPSE       19.70 TCPU       18.65
 INSULATING STATE
 TOP OF VALENCE BANDS -    BAND     45; K    3; EIG -4.4500331E-01 AU
 TOP OF VALENCE BANDS -    BAND     45; K    1; EIG -4.5761395E-01 AU
 BOTTOM OF VIRTUAL BANDS - BAND     46; K    1; EIG  1.6723511E-01 AU
 INDIRECT ENERGY BAND GAP:  16.6599 eV
 TTTTTTTTTTTTTTTTTTTTTTTTTTTTTT PDIG        TELAPSE       19.71 TCPU       18.66
 TTTTTTTTTTTTTTTTTTTTTTTTTTTTTT MOQGAD      TELAPSE       19.71 TCPU       18.66
 TTTTTTTTTTTTTTTTTTTTTTTTTTTTTT SHELLXN     TELAPSE       22.75 TCPU       21.69
 TTTTTTTTTTTTTTTTTTTTTTTTTTTTTT MONMO3      TELAPSE       22.76 TCPU       21.70
 CYC   6 ETOT(AU) -1.316703023342E+03 DETOT -8.22E-06 tst  4.99E-07 PX  2.43E-03
 TTTTTTTTTTTTTTTTTTTTTTTTTTTTTT DIIS        TELAPSE       22.76 TCPU       21.70
 DIIS TEST: 0.16900E-05 AT SCF   CYCLE   6 - DIIS ACTIVE - HISTORY:     6 CYCLES
 TTTTTTTTTTTTTTTTTTTTTTTTTTTTTT FDIK        TELAPSE       22.80 TCPU       21.74
 INSULATING STATE
 TOP OF VALENCE BANDS -    BAND     45; K    3; EIG -4.4505828E-01 AU
 TOP OF VALENCE BANDS -    BAND     45; K    1; EIG -4.5766058E-01 AU
 BOTTOM OF VIRTUAL BANDS - BAND     46; K    1; EIG  1.6718524E-01 AU
 INDIRECT ENERGY BAND GAP:  16.6600 eV
 TTTTTTTTTTTTTTTTTTTTTTTTTTTTTT PDIG        TELAPSE       22.81 TCPU       21.75
 TTTTTTTTTTTTTTTTTTTTTTTTTTTTTT MOQGAD      TELAPSE       22.81 TCPU       21.76
 TTTTTTTTTTTTTTTTTTTTTTTTTTTTTT SHELLXN     TELAPSE       25.84 TCPU       24.78
 TTTTTTTTTTTTTTTTTTTTTTTTTTTTTT MONMO3      TELAPSE       25.85 TCPU       24.79
 CYC   7 ETOT(AU) -1.316703024193E+03 DETOT -8.52E-07 tst  3.10E-07 PX  2.14E-03
 TTTTTTTTTTTTTTTTTTTTTTTTTTTTTT DIIS        TELAPSE       25.86 TCPU       24.79
 DIIS TEST: 0.12584E-05 AT SCF   CYCLE   7 - DIIS ACTIVE - HISTORY:     7 CYCLES
 TTTTTTTTTTTTTTTTTTTTTTTTTTTTTT FDIK        TELAPSE       25.90 TCPU       24.83
 INSULATING STATE
 TOP OF VALENCE BANDS -    BAND     45; K    3; EIG -4.4507235E-01 AU
 TOP OF VALENCE BANDS -    BAND     45; K    1; EIG -4.5766887E-01 AU
 BOTTOM OF VIRTUAL BANDS - BAND     46; K    1; EIG  1.6719471E-01 AU
 INDIRECT ENERGY BAND GAP:  16.6606 eV
 TTTTTTTTTTTTTTTTTTTTTTTTTTTTTT PDIG        TELAPSE       25.90 TCPU       24.84
 TTTTTTTTTTTTTTTTTTTTTTTTTTTTTT MOQGAD      TELAPSE       25.91 TCPU       24.85
 TTTTTTTTTTTTTTTTTTTTTTTTTTTTTT SHELLXN     TELAPSE       28.94 TCPU       27.87
 TTTTTTTTTTTTTTTTTTTTTTTTTTTTTT MONMO3      TELAPSE       28.95 TCPU       27.88
 CYC   8 ETOT(AU) -1.316703023059E+03 DETOT  1.13E-06 tst  2.05E-07 PX  1.98E-03
 TTTTTTTTTTTTTTTTTTTTTTTTTTTTTT DIIS        TELAPSE       28.95 TCPU       27.88
 DIIS TEST: 0.81318E-06 AT SCF   CYCLE   8 - DIIS ACTIVE - HISTORY:     8 CYCLES
 TTTTTTTTTTTTTTTTTTTTTTTTTTTTTT FDIK        TELAPSE       28.99 TCPU       27.92
 INSULATING STATE
 TOP OF VALENCE BANDS -    BAND     45; K    3; EIG -4.4508126E-01 AU
 TOP OF VALENCE BANDS -    BAND     45; K    1; EIG -4.5767323E-01 AU
 BOTTOM OF VIRTUAL BANDS - BAND     46; K    1; EIG  1.6722557E-01 AU
 INDIRECT ENERGY BAND GAP:  16.6617 eV
 TTTTTTTTTTTTTTTTTTTTTTTTTTTTTT PDIG        TELAPSE       29.00 TCPU       27.93
 TTTTTTTTTTTTTTTTTTTTTTTTTTTTTT MOQGAD      TELAPSE       29.00 TCPU       27.93
 TTTTTTTTTTTTTTTTTTTTTTTTTTTTTT SHELLXN     TELAPSE       32.03 TCPU       30.96
 TTTTTTTTTTTTTTTTTTTTTTTTTTTTTT MONMO3      TELAPSE       32.04 TCPU       30.97
 CYC   9 ETOT(AU) -1.316703021247E+03 DETOT  1.81E-06 tst  1.57E-07 PX  1.86E-03
 TTTTTTTTTTTTTTTTTTTTTTTTTTTTTT DIIS        TELAPSE       32.04 TCPU       30.97
 DIIS TEST: 0.74362E-06 AT SCF   CYCLE   9 - DIIS ACTIVE - HISTORY:     9 CYCLES
 TTTTTTTTTTTTTTTTTTTTTTTTTTTTTT FDIK        TELAPSE       32.09 TCPU       31.01
 INSULATING STATE
 TOP OF VALENCE BANDS -    BAND     45; K    3; EIG -4.4508556E-01 AU
 TOP OF VALENCE BANDS -    BAND     45; K    1; EIG -4.5767485E-01 AU
 BOTTOM OF VIRTUAL BANDS - BAND     46; K    1; EIG  1.6725840E-01 AU
 INDIRECT ENERGY BAND GAP:  16.6627 eV
 TTTTTTTTTTTTTTTTTTTTTTTTTTTTTT PDIG        TELAPSE       32.10 TCPU       31.02
 TTTTTTTTTTTTTTTTTTTTTTTTTTTTTT MOQGAD      TELAPSE       32.10 TCPU       31.03
 TTTTTTTTTTTTTTTTTTTTTTTTTTTTTT SHELLXN     TELAPSE       35.13 TCPU       34.05
 TTTTTTTTTTTTTTTTTTTTTTTTTTTTTT MONMO3      TELAPSE       35.14 TCPU       34.06
 CYC  10 ETOT(AU) -1.316703019653E+03 DETOT  1.59E-06 tst  7.80E-08 PX  1.33E-03
 TTTTTTTTTTTTTTTTTTTTTTTTTTTTTT DIIS        TELAPSE       35.14 TCPU       34.06
 DIIS TEST: 0.51873E-06 AT SCF   CYCLE  10 - DIIS ACTIVE - HISTORY:    10 CYCLES
 TTTTTTTTTTTTTTTTTTTTTTTTTTTTTT FDIK        TELAPSE       35.18 TCPU       34.10
 INSULATING STATE
 TOP OF VALENCE BANDS -    BAND     45; K    3; EIG -4.4509145E-01 AU
 TOP OF VALENCE BANDS -    BAND     45; K    1; EIG -4.5767762E-01 AU
 BOTTOM OF VIRTUAL BANDS - BAND     46; K    1; EIG  1.6729847E-01 AU
 INDIRECT ENERGY BAND GAP:  16.6640 eV
 TTTTTTTTTTTTTTTTTTTTTTTTTTTTTT PDIG        TELAPSE       35.19 TCPU       34.11
 TTTTTTTTTTTTTTTTTTTTTTTTTTTTTT MOQGAD      TELAPSE       35.19 TCPU       34.11
 TTTTTTTTTTTTTTTTTTTTTTTTTTTTTT SHELLXN     TELAPSE       38.24 TCPU       37.15
 TTTTTTTTTTTTTTTTTTTTTTTTTTTTTT MONMO3      TELAPSE       38.25 TCPU       37.16
 CYC  11 ETOT(AU) -1.316703017510E+03 DETOT  2.14E-06 tst  1.05E-07 PX  1.56E-03
 TTTTTTTTTTTTTTTTTTTTTTTTTTTTTT DIIS        TELAPSE       38.25 TCPU       37.16
 DIIS TEST: 0.50026E-06 AT SCF   CYCLE  11 - DIIS ACTIVE - HISTORY:    11 CYCLES
 TTTTTTTTTTTTTTTTTTTTTTTTTTTTTT FDIK        TELAPSE       38.29 TCPU       37.20
 INSULATING STATE
 TOP OF VALENCE BANDS -    BAND     45; K    3; EIG -4.4509350E-01 AU
 TOP OF VALENCE BANDS -    BAND     45; K    1; EIG -4.5767894E-01 AU
 BOTTOM OF VIRTUAL BANDS - BAND     46; K    1; EIG  1.6731262E-01 AU
 INDIRECT ENERGY BAND GAP:  16.6644 eV
 TTTTTTTTTTTTTTTTTTTTTTTTTTTTTT PDIG        TELAPSE       38.30 TCPU       37.21
 TTTTTTTTTTTTTTTTTTTTTTTTTTTTTT MOQGAD      TELAPSE       38.30 TCPU       37.22
 TTTTTTTTTTTTTTTTTTTTTTTTTTTTTT SHELLXN     TELAPSE       41.35 TCPU       40.25
 TTTTTTTTTTTTTTTTTTTTTTTTTTTTTT MONMO3      TELAPSE       41.36 TCPU       40.26
 CYC  12 ETOT(AU) -1.316703017026E+03 DETOT  4.84E-07 tst  7.68E-09 PX  4.35E-04
 TTTTTTTTTTTTTTTTTTTTTTTTTTTTTT DIIS        TELAPSE       41.36 TCPU       40.26
 DIIS TEST: 0.57862E-07 AT SCF   CYCLE  12 - DIIS ACTIVE - HISTORY:    12 CYCLES
 TTTTTTTTTTTTTTTTTTTTTTTTTTTTTT FDIK        TELAPSE       41.40 TCPU       40.30
 INSULATING STATE
 TOP OF VALENCE BANDS -    BAND     45; K    3; EIG -4.4509888E-01 AU
 TOP OF VALENCE BANDS -    BAND     45; K    1; EIG -4.5768213E-01 AU
 BOTTOM OF VIRTUAL BANDS - BAND     46; K    1; EIG  1.6734897E-01 AU
 INDIRECT ENERGY BAND GAP:  16.6656 eV
 TTTTTTTTTTTTTTTTTTTTTTTTTTTTTT PDIG        TELAPSE       41.41 TCPU       40.31
 TTTTTTTTTTTTTTTTTTTTTTTTTTTTTT MOQGAD      TELAPSE       41.41 TCPU       40.32
 TTTTTTTTTTTTTTTTTTTTTTTTTTTTTT SHELLXN     TELAPSE       44.45 TCPU       43.35
 TTTTTTTTTTTTTTTTTTTTTTTTTTTTTT MONMO3      TELAPSE       44.46 TCPU       43.36
 CYC  13 ETOT(AU) -1.316703015242E+03 DETOT  1.78E-06 tst  6.43E-08 PX  1.24E-03
 TTTTTTTTTTTTTTTTTTTTTTTTTTTTTT DIIS        TELAPSE       44.46 TCPU       43.36
 DIIS TEST: 0.55886E-07 AT SCF   CYCLE  13 - DIIS ACTIVE - HISTORY:    13 CYCLES
 TTTTTTTTTTTTTTTTTTTTTTTTTTTTTT FDIK        TELAPSE       44.51 TCPU       43.41
 INSULATING STATE
 TOP OF VALENCE BANDS -    BAND     45; K    3; EIG -4.4509931E-01 AU
 TOP OF VALENCE BANDS -    BAND     45; K    1; EIG -4.5768244E-01 AU
 BOTTOM OF VIRTUAL BANDS - BAND     46; K    1; EIG  1.6735274E-01 AU
 INDIRECT ENERGY BAND GAP:  16.6657 eV
 TTTTTTTTTTTTTTTTTTTTTTTTTTTTTT PDIG        TELAPSE       44.51 TCPU       43.41
 TTTTTTTTTTTTTTTTTTTTTTTTTTTTTT MOQGAD      TELAPSE       44.52 TCPU       43.42
 TTTTTTTTTTTTTTTTTTTTTTTTTTTTTT SHELLXN     TELAPSE       47.56 TCPU       46.45
 TTTTTTTTTTTTTTTTTTTTTTTTTTTTTT MONMO3      TELAPSE       47.57 TCPU       46.46
 CYC  14 ETOT(AU) -1.316703015191E+03 DETOT  5.14E-08 tst  4.49E-10 PX  1.09E-04
 TTTTTTTTTTTTTTTTTTTTTTTTTTTTTT DIIS        TELAPSE       47.57 TCPU       46.46
 DIIS TEST: 0.14916E-07 AT SCF   CYCLE  14 - DIIS ACTIVE - HISTORY:    14 CYCLES
 TTTTTTTTTTTTTTTTTTTTTTTTTTTTTT FDIK        TELAPSE       47.61 TCPU       46.50
 INSULATING STATE
 TOP OF VALENCE BANDS -    BAND     45; K    3; EIG -4.4510305E-01 AU
 TOP OF VALENCE BANDS -    BAND     45; K    1; EIG -4.5768475E-01 AU
 BOTTOM OF VIRTUAL BANDS - BAND     46; K    1; EIG  1.6737997E-01 AU
 INDIRECT ENERGY BAND GAP:  16.6665 eV
 TTTTTTTTTTTTTTTTTTTTTTTTTTTTTT PDIG        TELAPSE       47.62 TCPU       46.51
 TTTTTTTTTTTTTTTTTTTTTTTTTTTTTT MOQGAD      TELAPSE       47.63 TCPU       46.52
 TTTTTTTTTTTTTTTTTTTTTTTTTTTTTT SHELLXN     TELAPSE       50.66 TCPU       49.55
 TTTTTTTTTTTTTTTTTTTTTTTTTTTTTT MONMO3      TELAPSE       50.67 TCPU       49.56
 CYC  15 ETOT(AU) -1.316703014082E+03 DETOT  1.11E-06 tst  2.90E-08 PX  8.51E-04
 TTTTTTTTTTTTTTTTTTTTTTTTTTTTTT DIIS        TELAPSE       50.67 TCPU       49.56
 DIIS TEST: 0.17856E-07 AT SCF   CYCLE  15 - DIIS ACTIVE - HISTORY:    15 CYCLES
 TTTTTTTTTTTTTTTTTTTTTTTTTTTTTT FDIK        TELAPSE       50.72 TCPU       49.60
 INSULATING STATE
 TOP OF VALENCE BANDS -    BAND     45; K    3; EIG -4.4510327E-01 AU
 TOP OF VALENCE BANDS -    BAND     45; K    1; EIG -4.5768492E-01 AU
 BOTTOM OF VIRTUAL BANDS - BAND     46; K    1; EIG  1.6738085E-01 AU
 INDIRECT ENERGY BAND GAP:  16.6665 eV
 TTTTTTTTTTTTTTTTTTTTTTTTTTTTTT PDIG        TELAPSE       50.72 TCPU       49.61
 TTTTTTTTTTTTTTTTTTTTTTTTTTTTTT MOQGAD      TELAPSE       50.73 TCPU       49.62
 TTTTTTTTTTTTTTTTTTTTTTTTTTTTTT SHELLXN     TELAPSE       53.77 TCPU       52.65
 TTTTTTTTTTTTTTTTTTTTTTTTTTTTTT MONMO3      TELAPSE       53.78 TCPU       52.66
 CYC  16 ETOT(AU) -1.316703014065E+03 DETOT  1.68E-08 tst  5.23E-11 PX  4.20E-05
 TTTTTTTTTTTTTTTTTTTTTTTTTTTTTT DIIS        TELAPSE       53.78 TCPU       52.66
 DIIS TEST: 0.60566E-08 AT SCF   CYCLE  16 - DIIS ACTIVE - HISTORY:    16 CYCLES
 TTTTTTTTTTTTTTTTTTTTTTTTTTTTTT FDIK        TELAPSE       53.82 TCPU       52.70
 INSULATING STATE
 TOP OF VALENCE BANDS -    BAND     45; K    3; EIG -4.4510693E-01 AU
 TOP OF VALENCE BANDS -    BAND     45; K    1; EIG -4.5768744E-01 AU
 BOTTOM OF VIRTUAL BANDS - BAND     46; K    1; EIG  1.6740308E-01 AU
 INDIRECT ENERGY BAND GAP:  16.6673 eV
 TTTTTTTTTTTTTTTTTTTTTTTTTTTTTT PDIG        TELAPSE       53.83 TCPU       52.71
 TTTTTTTTTTTTTTTTTTTTTTTTTTTTTT MOQGAD      TELAPSE       53.83 TCPU       52.71
 TTTTTTTTTTTTTTTTTTTTTTTTTTTTTT SHELLXN     TELAPSE       56.87 TCPU       55.74
 TTTTTTTTTTTTTTTTTTTTTTTTTTTTTT MONMO3      TELAPSE       56.88 TCPU       55.75
 CYC  17 ETOT(AU) -1.316703013275E+03 DETOT  7.90E-07 tst  2.04E-08 PX  7.26E-04
 TTTTTTTTTTTTTTTTTTTTTTTTTTTTTT DIIS        TELAPSE       56.88 TCPU       55.76
 DIIS TEST: 0.87364E-08 AT SCF   CYCLE  17 - DIIS ACTIVE - HISTORY:    17 CYCLES
 TTTTTTTTTTTTTTTTTTTTTTTTTTTTTT FDIK        TELAPSE       56.93 TCPU       55.80
 INSULATING STATE
 TOP OF VALENCE BANDS -    BAND     45; K    3; EIG -4.4510709E-01 AU
 TOP OF VALENCE BANDS -    BAND     45; K    1; EIG -4.5768757E-01 AU
 BOTTOM OF VIRTUAL BANDS - BAND     46; K    1; EIG  1.6740347E-01 AU
 INDIRECT ENERGY BAND GAP:  16.6673 eV
 TTTTTTTTTTTTTTTTTTTTTTTTTTTTTT PDIG        TELAPSE       56.93 TCPU       55.81
 TTTTTTTTTTTTTTTTTTTTTTTTTTTTTT MOQGAD      TELAPSE       56.94 TCPU       55.81
 TTTTTTTTTTTTTTTTTTTTTTTTTTTTTT SHELLXN     TELAPSE       60.00 TCPU       58.86
 TTTTTTTTTTTTTTTTTTTTTTTTTTTTTT MONMO3      TELAPSE       60.01 TCPU       58.87
 CYC  18 ETOT(AU) -1.316703013289E+03 DETOT -1.42E-08 tst  7.16E-11 PX  5.71E-05
 TTTTTTTTTTTTTTTTTTTTTTTTTTTTTT DIIS        TELAPSE       60.01 TCPU       58.88
 DIIS TEST: 0.24564E-08 AT SCF   CYCLE  18 - DIIS ACTIVE - HISTORY:    18 CYCLES
 TTTTTTTTTTTTTTTTTTTTTTTTTTTTTT FDIK        TELAPSE       60.05 TCPU       58.92
 INSULATING STATE
 TOP OF VALENCE BANDS -    BAND     45; K    3; EIG -4.4511037E-01 AU
 TOP OF VALENCE BANDS -    BAND     45; K    1; EIG -4.5768994E-01 AU
 BOTTOM OF VIRTUAL BANDS - BAND     46; K    1; EIG  1.6741807E-01 AU
 INDIRECT ENERGY BAND GAP:  16.6678 eV
 TTTTTTTTTTTTTTTTTTTTTTTTTTTTTT PDIG        TELAPSE       60.06 TCPU       58.92
 TTTTTTTTTTTTTTTTTTTTTTTTTTTTTT MOQGAD      TELAPSE       60.06 TCPU       58.93
 TTTTTTTTTTTTTTTTTTTTTTTTTTTTTT SHELLXN     TELAPSE       63.12 TCPU       61.98
 TTTTTTTTTTTTTTTTTTTTTTTTTTTTTT MONMO3      TELAPSE       63.13 TCPU       61.99
 CYC  19 ETOT(AU) -1.316703012785E+03 DETOT  5.04E-07 tst  1.67E-08 PX  7.60E-04
 TTTTTTTTTTTTTTTTTTTTTTTTTTTTTT DIIS        TELAPSE       63.14 TCPU       62.00
 DIIS TEST: 0.52893E-08 AT SCF   CYCLE  19 - DIIS ACTIVE - HISTORY:    19 CYCLES
 TTTTTTTTTTTTTTTTTTTTTTTTTTTTTT FDIK        TELAPSE       63.18 TCPU       62.04
 INSULATING STATE
 TOP OF VALENCE BANDS -    BAND     45; K    3; EIG -4.4511045E-01 AU
 TOP OF VALENCE BANDS -    BAND     45; K    1; EIG -4.5769001E-01 AU
 BOTTOM OF VIRTUAL BANDS - BAND     46; K    1; EIG  1.6741763E-01 AU
 INDIRECT ENERGY BAND GAP:  16.6677 eV
 TTTTTTTTTTTTTTTTTTTTTTTTTTTTTT PDIG        TELAPSE       63.19 TCPU       62.05
 TTTTTTTTTTTTTTTTTTTTTTTTTTTTTT MOQGAD      TELAPSE       63.19 TCPU       62.05
 TTTTTTTTTTTTTTTTTTTTTTTTTTTTTT SHELLXN     TELAPSE       66.25 TCPU       65.11
 TTTTTTTTTTTTTTTTTTTTTTTTTTTTTT MONMO3      TELAPSE       66.26 TCPU       65.12
 CYC  20 ETOT(AU) -1.316703012811E+03 DETOT -2.57E-08 tst  1.70E-11 PX  2.89E-05
 TTTTTTTTTTTTTTTTTTTTTTTTTTTTTT DIIS        TELAPSE       66.27 TCPU       65.12
 DIIS TEST: 0.74812E-09 AT SCF   CYCLE  20 - DIIS ACTIVE - HISTORY:    20 CYCLES
 TTTTTTTTTTTTTTTTTTTTTTTTTTTTTT FDIK        TELAPSE       66.31 TCPU       65.16
 INSULATING STATE
 TOP OF VALENCE BANDS -    BAND     45; K    3; EIG -4.4511192E-01 AU
 TOP OF VALENCE BANDS -    BAND     45; K    1; EIG -4.5769121E-01 AU
 BOTTOM OF VIRTUAL BANDS - BAND     46; K    1; EIG  1.6741888E-01 AU
 INDIRECT ENERGY BAND GAP:  16.6678 eV
 TTTTTTTTTTTTTTTTTTTTTTTTTTTTTT PDIG        TELAPSE       66.32 TCPU       65.17
 TTTTTTTTTTTTTTTTTTTTTTTTTTTTTT MOQGAD      TELAPSE       66.32 TCPU       65.18
 TTTTTTTTTTTTTTTTTTTTTTTTTTTTTT SHELLXN     TELAPSE       69.37 TCPU       68.22
 TTTTTTTTTTTTTTTTTTTTTTTTTTTTTT MONMO3      TELAPSE       69.38 TCPU       68.23
 CYC  21 ETOT(AU) -1.316703012828E+03 DETOT -1.69E-08 tst  4.63E-09 PX  4.56E-04
 TTTTTTTTTTTTTTTTTTTTTTTTTTTTTT DIIS        TELAPSE       69.38 TCPU       68.23
 DIIS TEST: 0.11234E-08 AT SCF   CYCLE  21 - DIIS ACTIVE - HISTORY:    21 CYCLES
 TTTTTTTTTTTTTTTTTTTTTTTTTTTTTT FDIK        TELAPSE       69.42 TCPU       68.27
 INSULATING STATE
 TOP OF VALENCE BANDS -    BAND     45; K    3; EIG -4.4511199E-01 AU
 TOP OF VALENCE BANDS -    BAND     45; K    1; EIG -4.5769126E-01 AU
 BOTTOM OF VIRTUAL BANDS - BAND     46; K    1; EIG  1.6741825E-01 AU
 INDIRECT ENERGY BAND GAP:  16.6678 eV
 TTTTTTTTTTTTTTTTTTTTTTTTTTTTTT PDIG        TELAPSE       69.43 TCPU       68.28
 TTTTTTTTTTTTTTTTTTTTTTTTTTTTTT MOQGAD      TELAPSE       69.44 TCPU       68.29
 TTTTTTTTTTTTTTTTTTTTTTTTTTTTTT SHELLXN     TELAPSE       72.48 TCPU       71.33
 TTTTTTTTTTTTTTTTTTTTTTTTTTTTTT MONMO3      TELAPSE       72.49 TCPU       71.34
 CYC  22 ETOT(AU) -1.316703012843E+03 DETOT -1.50E-08 tst  1.81E-11 PX  3.07E-05
 TTTTTTTTTTTTTTTTTTTTTTTTTTTTTT DIIS        TELAPSE       72.50 TCPU       71.34
 DIIS TEST: 0.25477E-09 AT SCF   CYCLE  22 - DIIS ACTIVE - HISTORY:    22 CYCLES
 TTTTTTTTTTTTTTTTTTTTTTTTTTTTTT FDIK        TELAPSE       72.54 TCPU       71.38
 INSULATING STATE
 TOP OF VALENCE BANDS -    BAND     45; K    3; EIG -4.4511259E-01 AU
 TOP OF VALENCE BANDS -    BAND     45; K    1; EIG -4.5769181E-01 AU
 BOTTOM OF VIRTUAL BANDS - BAND     46; K    1; EIG  1.6741310E-01 AU
 INDIRECT ENERGY BAND GAP:  16.6677 eV
 TTTTTTTTTTTTTTTTTTTTTTTTTTTTTT PDIG        TELAPSE       72.54 TCPU       71.39
 TTTTTTTTTTTTTTTTTTTTTTTTTTTTTT MOQGAD      TELAPSE       72.55 TCPU       71.39
 TTTTTTTTTTTTTTTTTTTTTTTTTTTTTT SHELLXN     TELAPSE       75.60 TCPU       74.43
 TTTTTTTTTTTTTTTTTTTTTTTTTTTTTT MONMO3      TELAPSE       75.61 TCPU       74.44
 CYC  23 ETOT(AU) -1.316703012997E+03 DETOT -1.54E-07 tst  1.70E-09 PX  2.99E-04
 TTTTTTTTTTTTTTTTTTTTTTTTTTTTTT DIIS        TELAPSE       75.61 TCPU       74.45
 DIIS TEST: 0.28008E-09 AT SCF   CYCLE  23 - DIIS ACTIVE - HISTORY:    23 CYCLES
 TTTTTTTTTTTTTTTTTTTTTTTTTTTTTT FDIK        TELAPSE       75.65 TCPU       74.49
 INSULATING STATE
 TOP OF VALENCE BANDS -    BAND     45; K    3; EIG -4.4511258E-01 AU
 TOP OF VALENCE BANDS -    BAND     45; K    1; EIG -4.5769180E-01 AU
 BOTTOM OF VIRTUAL BANDS - BAND     46; K    1; EIG  1.6741275E-01 AU
 INDIRECT ENERGY BAND GAP:  16.6677 eV
 TTTTTTTTTTTTTTTTTTTTTTTTTTTTTT PDIG        TELAPSE       75.66 TCPU       74.50
 TTTTTTTTTTTTTTTTTTTTTTTTTTTTTT MOQGAD      TELAPSE       75.67 TCPU       74.50
 TTTTTTTTTTTTTTTTTTTTTTTTTTTTTT SHELLXN     TELAPSE       78.72 TCPU       77.55
 TTTTTTTTTTTTTTTTTTTTTTTTTTTTTT MONMO3      TELAPSE       78.73 TCPU       77.56
 CYC  24 ETOT(AU) -1.316703012998E+03 DETOT -1.01E-09 tst  1.09E-12 PX  6.63E-06
 TTTTTTTTTTTTTTTTTTTTTTTTTTTTTT DIIS        TELAPSE       78.73 TCPU       77.56
 DIIS TEST: 0.52890E-10 AT SCF   CYCLE  24 - DIIS ACTIVE - HISTORY:    24 CYCLES
 TTTTTTTTTTTTTTTTTTTTTTTTTTTTTT FDIK        TELAPSE       78.77 TCPU       77.60
 INSULATING STATE
 TOP OF VALENCE BANDS -    BAND     45; K    3; EIG -4.4511260E-01 AU
 TOP OF VALENCE BANDS -    BAND     45; K    1; EIG -4.5769180E-01 AU
 BOTTOM OF VIRTUAL BANDS - BAND     46; K    1; EIG  1.6741060E-01 AU
 INDIRECT ENERGY BAND GAP:  16.6676 eV
 TTTTTTTTTTTTTTTTTTTTTTTTTTTTTT PDIG        TELAPSE       78.78 TCPU       77.61
 TTTTTTTTTTTTTTTTTTTTTTTTTTTTTT MOQGAD      TELAPSE       78.78 TCPU       77.61
 TTTTTTTTTTTTTTTTTTTTTTTTTTTTTT SHELLXN     TELAPSE       81.83 TCPU       80.66
 TTTTTTTTTTTTTTTTTTTTTTTTTTTTTT MONMO3      TELAPSE       81.84 TCPU       80.67
 CYC  25 ETOT(AU) -1.316703013023E+03 DETOT -2.45E-08 tst  7.61E-11 PX  5.72E-05
 TTTTTTTTTTTTTTTTTTTTTTTTTTTTTT DIIS        TELAPSE       81.84 TCPU       80.67
 DIIS TEST: 0.37602E-10 AT SCF   CYCLE  25 - DIIS ACTIVE - HISTORY:    25 CYCLES
 TTTTTTTTTTTTTTTTTTTTTTTTTTTTTT FDIK        TELAPSE       81.89 TCPU       80.71
 INSULATING STATE
 TOP OF VALENCE BANDS -    BAND     45; K    3; EIG -4.4511255E-01 AU
 TOP OF VALENCE BANDS -    BAND     45; K    1; EIG -4.5769174E-01 AU
 BOTTOM OF VIRTUAL BANDS - BAND     46; K    1; EIG  1.6740997E-01 AU
 INDIRECT ENERGY BAND GAP:  16.6676 eV
 TTTTTTTTTTTTTTTTTTTTTTTTTTTTTT PDIG        TELAPSE       81.89 TCPU       80.72
 TTTTTTTTTTTTTTTTTTTTTTTTTTTTTT MOQGAD      TELAPSE       81.90 TCPU       80.72
 TTTTTTTTTTTTTTTTTTTTTTTTTTTTTT SHELLXN     TELAPSE       84.95 TCPU       83.77
 TTTTTTTTTTTTTTTTTTTTTTTTTTTTTT MONMO3      TELAPSE       84.96 TCPU       83.78
 CYC  26 ETOT(AU) -1.316703013031E+03 DETOT -8.57E-09 tst  1.54E-11 PX  1.44E-05
 TTTTTTTTTTTTTTTTTTTTTTTTTTTTTT DIIS        TELAPSE       84.96 TCPU       83.78
 DIIS TEST: 0.26551E-10 AT SCF   CYCLE  26 - DIIS ACTIVE - HISTORY:    26 CYCLES
 TTTTTTTTTTTTTTTTTTTTTTTTTTTTTT FDIK        TELAPSE       85.00 TCPU       83.82
 INSULATING STATE
 TOP OF VALENCE BANDS -    BAND     45; K    3; EIG -4.4511250E-01 AU
 TOP OF VALENCE BANDS -    BAND     45; K    1; EIG -4.5769167E-01 AU
 BOTTOM OF VIRTUAL BANDS - BAND     46; K    1; EIG  1.6740935E-01 AU
 INDIRECT ENERGY BAND GAP:  16.6676 eV
 TTTTTTTTTTTTTTTTTTTTTTTTTTTTTT PDIG        TELAPSE       85.01 TCPU       83.83
 TTTTTTTTTTTTTTTTTTTTTTTTTTTTTT MOQGAD      TELAPSE       85.02 TCPU       83.84
 TTTTTTTTTTTTTTTTTTTTTTTTTTTTTT SHELLXN     TELAPSE       88.07 TCPU       86.88
 TTTTTTTTTTTTTTTTTTTTTTTTTTTTTT MONMO3      TELAPSE       88.08 TCPU       86.89
 CYC  27 ETOT(AU) -1.316703013049E+03 DETOT -1.74E-08 tst  2.67E-11 PX  2.01E-05
 TTTTTTTTTTTTTTTTTTTTTTTTTTTTTT DIIS        TELAPSE       88.08 TCPU       86.89
 DIIS TEST: 0.23191E-10 AT SCF   CYCLE  27 - DIIS ACTIVE - HISTORY:    27 CYCLES
 TTTTTTTTTTTTTTTTTTTTTTTTTTTTTT FDIK        TELAPSE       88.12 TCPU       86.94
 INSULATING STATE
 TOP OF VALENCE BANDS -    BAND     45; K    3; EIG -4.4511249E-01 AU
 TOP OF VALENCE BANDS -    BAND     45; K    1; EIG -4.5769165E-01 AU
 BOTTOM OF VIRTUAL BANDS - BAND     46; K    1; EIG  1.6740927E-01 AU
 INDIRECT ENERGY BAND GAP:  16.6676 eV
 TTTTTTTTTTTTTTTTTTTTTTTTTTTTTT PDIG        TELAPSE       88.13 TCPU       86.94
 TTTTTTTTTTTTTTTTTTTTTTTTTTTTTT MOQGAD      TELAPSE       88.14 TCPU       86.95
 TTTTTTTTTTTTTTTTTTTTTTTTTTTTTT SHELLXN     TELAPSE       91.19 TCPU       90.00
 TTTTTTTTTTTTTTTTTTTTTTTTTTTTTT MONMO3      TELAPSE       91.20 TCPU       90.01
 CYC  28 ETOT(AU) -1.316703013061E+03 DETOT -1.24E-08 tst  4.90E-12 PX  8.84E-06
 TTTTTTTTTTTTTTTTTTTTTTTTTTTTTT DIIS        TELAPSE       91.21 TCPU       90.01
 DIIS TEST: 0.14269E-10 AT SCF   CYCLE  28 - DIIS ACTIVE - HISTORY:    28 CYCLES
 TTTTTTTTTTTTTTTTTTTTTTTTTTTTTT FDIK        TELAPSE       91.25 TCPU       90.05
 INSULATING STATE
 TOP OF VALENCE BANDS -    BAND     45; K    3; EIG -4.4511245E-01 AU
 TOP OF VALENCE BANDS -    BAND     45; K    1; EIG -4.5769157E-01 AU
 BOTTOM OF VIRTUAL BANDS - BAND     46; K    1; EIG  1.6740890E-01 AU
 INDIRECT ENERGY BAND GAP:  16.6676 eV
 TTTTTTTTTTTTTTTTTTTTTTTTTTTTTT PDIG        TELAPSE       91.26 TCPU       90.06
 TTTTTTTTTTTTTTTTTTTTTTTTTTTTTT MOQGAD      TELAPSE       91.26 TCPU       90.07
 TTTTTTTTTTTTTTTTTTTTTTTTTTTTTT SHELLXN     TELAPSE       94.32 TCPU       93.12
 TTTTTTTTTTTTTTTTTTTTTTTTTTTTTT MONMO3      TELAPSE       94.33 TCPU       93.13
 CYC  29 ETOT(AU) -1.316703013088E+03 DETOT -2.74E-08 tst  2.93E-11 PX  2.16E-05
 TTTTTTTTTTTTTTTTTTTTTTTTTTTTTT DIIS        TELAPSE       94.33 TCPU       93.13
 DIIS TEST: 0.16104E-10 AT SCF   CYCLE  29 - DIIS ACTIVE - HISTORY:    29 CYCLES
 TTTTTTTTTTTTTTTTTTTTTTTTTTTTTT FDIK        TELAPSE       94.37 TCPU       93.17
 INSULATING STATE
 TOP OF VALENCE BANDS -    BAND     45; K    3; EIG -4.4511245E-01 AU
 TOP OF VALENCE BANDS -    BAND     45; K    1; EIG -4.5769156E-01 AU
 BOTTOM OF VIRTUAL BANDS - BAND     46; K    1; EIG  1.6740895E-01 AU
 INDIRECT ENERGY BAND GAP:  16.6676 eV
 TTTTTTTTTTTTTTTTTTTTTTTTTTTTTT PDIG        TELAPSE       94.38 TCPU       93.18
 TTTTTTTTTTTTTTTTTTTTTTTTTTTTTT MOQGAD      TELAPSE       94.38 TCPU       93.18
 TTTTTTTTTTTTTTTTTTTTTTTTTTTTTT SHELLXN     TELAPSE       97.45 TCPU       96.24
 TTTTTTTTTTTTTTTTTTTTTTTTTTTTTT MONMO3      TELAPSE       97.46 TCPU       96.25
 CYC  30 ETOT(AU) -1.316703013092E+03 DETOT -4.06E-09 tst  5.82E-13 PX  2.91E-06
 TTTTTTTTTTTTTTTTTTTTTTTTTTTTTT DIIS        TELAPSE       97.46 TCPU       96.25
 DIIS TEST: 0.10166E-10 AT SCF   CYCLE  30 - DIIS ACTIVE - HISTORY:    30 CYCLES
 TTTTTTTTTTTTTTTTTTTTTTTTTTTTTT FDIK        TELAPSE       97.50 TCPU       96.29
 INSULATING STATE
 TOP OF VALENCE BANDS -    BAND     45; K    3; EIG -4.4511245E-01 AU
 TOP OF VALENCE BANDS -    BAND     45; K    1; EIG -4.5769154E-01 AU
 BOTTOM OF VIRTUAL BANDS - BAND     46; K    1; EIG  1.6740895E-01 AU
 INDIRECT ENERGY BAND GAP:  16.6676 eV
 TTTTTTTTTTTTTTTTTTTTTTTTTTTTTT PDIG        TELAPSE       97.51 TCPU       96.30
 TTTTTTTTTTTTTTTTTTTTTTTTTTTTTT MOQGAD      TELAPSE       97.51 TCPU       96.31
 TTTTTTTTTTTTTTTTTTTTTTTTTTTTTT SHELLXN     TELAPSE      100.57 TCPU       99.36
 TTTTTTTTTTTTTTTTTTTTTTTTTTTTTT MONMO3      TELAPSE      100.58 TCPU       99.37
 CYC  31 ETOT(AU) -1.316703013102E+03 DETOT -9.87E-09 tst  4.50E-12 PX  7.93E-06
 TTTTTTTTTTTTTTTTTTTTTTTTTTTTTT DIIS        TELAPSE      100.58 TCPU       99.37
 DIIS TEST: 0.84229E-11 AT SCF   CYCLE  31 - DIIS ACTIVE - HISTORY:    31 CYCLES
 TTTTTTTTTTTTTTTTTTTTTTTTTTTTTT FDIK        TELAPSE      100.62 TCPU       99.41
 INSULATING STATE
 TOP OF VALENCE BANDS -    BAND     45; K    3; EIG -4.4511245E-01 AU
 TOP OF VALENCE BANDS -    BAND     45; K    1; EIG -4.5769152E-01 AU
 BOTTOM OF VIRTUAL BANDS - BAND     46; K    1; EIG  1.6740898E-01 AU
 INDIRECT ENERGY BAND GAP:  16.6676 eV
 TTTTTTTTTTTTTTTTTTTTTTTTTTTTTT PDIG        TELAPSE      100.63 TCPU       99.42
 TTTTTTTTTTTTTTTTTTTTTTTTTTTTTT MOQGAD      TELAPSE      100.63 TCPU       99.42
 TTTTTTTTTTTTTTTTTTTTTTTTTTTTTT SHELLXN     TELAPSE      103.71 TCPU      102.49
 TTTTTTTTTTTTTTTTTTTTTTTTTTTTTT MONMO3      TELAPSE      103.71 TCPU      102.50
 CYC  32 ETOT(AU) -1.316703013107E+03 DETOT -4.56E-09 tst  1.44E-12 PX  4.45E-06
 TTTTTTTTTTTTTTTTTTTTTTTTTTTTTT DIIS        TELAPSE      103.72 TCPU      102.50
 DIIS TEST: 0.59969E-11 AT SCF   CYCLE  32 - DIIS ACTIVE - HISTORY:    32 CYCLES
 TTTTTTTTTTTTTTTTTTTTTTTTTTTTTT FDIK        TELAPSE      103.76 TCPU      102.54
 INSULATING STATE
 TOP OF VALENCE BANDS -    BAND     45; K    3; EIG -4.4511245E-01 AU
 TOP OF VALENCE BANDS -    BAND     45; K    1; EIG -4.5769150E-01 AU
 BOTTOM OF VIRTUAL BANDS - BAND     46; K    1; EIG  1.6740901E-01 AU
 INDIRECT ENERGY BAND GAP:  16.6676 eV
 TTTTTTTTTTTTTTTTTTTTTTTTTTTTTT PDIG        TELAPSE      103.77 TCPU      102.55
 TTTTTTTTTTTTTTTTTTTTTTTTTTTTTT MOQGAD      TELAPSE      103.77 TCPU      102.55
 TTTTTTTTTTTTTTTTTTTTTTTTTTTTTT SHELLXN     TELAPSE      106.83 TCPU      105.61
 TTTTTTTTTTTTTTTTTTTTTTTTTTTTTT MONMO3      TELAPSE      106.84 TCPU      105.62
 CYC  33 ETOT(AU) -1.316703013114E+03 DETOT -7.19E-09 tst  2.54E-12 PX  5.90E-06
 TTTTTTTTTTTTTTTTTTTTTTTTTTTTTT DIIS        TELAPSE      106.85 TCPU      105.62
 DIIS TEST: 0.57741E-11 AT SCF   CYCLE  33 - DIIS ACTIVE - HISTORY:    33 CYCLES
 TTTTTTTTTTTTTTTTTTTTTTTTTTTTTT FDIK        TELAPSE      106.89 TCPU      105.66
 INSULATING STATE
 TOP OF VALENCE BANDS -    BAND     45; K    3; EIG -4.4511245E-01 AU
 TOP OF VALENCE BANDS -    BAND     45; K    1; EIG -4.5769149E-01 AU
 BOTTOM OF VIRTUAL BANDS - BAND     46; K    1; EIG  1.6740905E-01 AU
 INDIRECT ENERGY BAND GAP:  16.6676 eV
 TTTTTTTTTTTTTTTTTTTTTTTTTTTTTT PDIG        TELAPSE      106.89 TCPU      105.67
 TTTTTTTTTTTTTTTTTTTTTTTTTTTTTT MOQGAD      TELAPSE      106.90 TCPU      105.67
 TTTTTTTTTTTTTTTTTTTTTTTTTTTTTT SHELLXN     TELAPSE      109.96 TCPU      108.73
 TTTTTTTTTTTTTTTTTTTTTTTTTTTTTT MONMO3      TELAPSE      109.97 TCPU      108.74
 CYC  34 ETOT(AU) -1.316703013114E+03 DETOT -2.67E-10 tst  2.15E-13 PX  1.72E-06
 TTTTTTTTTTTTTTTTTTTTTTTTTTTTTT DIIS        TELAPSE      109.97 TCPU      108.74
 DIIS TEST: 0.60565E-11 AT SCF   CYCLE  34 - DIIS ACTIVE - HISTORY:    34 CYCLES
 TTTTTTTTTTTTTTTTTTTTTTTTTTTTTT FDIK        TELAPSE      110.00 TCPU      108.77
 INSULATING STATE
 TOP OF VALENCE BANDS -    BAND     45; K    3; EIG -4.4511245E-01 AU
 TOP OF VALENCE BANDS -    BAND     45; K    1; EIG -4.5769149E-01 AU
 BOTTOM OF VIRTUAL BANDS - BAND     46; K    1; EIG  1.6740906E-01 AU
 INDIRECT ENERGY BAND GAP:  16.6676 eV
 TTTTTTTTTTTTTTTTTTTTTTTTTTTTTT PDIG        TELAPSE      110.01 TCPU      108.78
 TTTTTTTTTTTTTTTTTTTTTTTTTTTTTT MOQGAD      TELAPSE      110.01 TCPU      108.78
 TTTTTTTTTTTTTTTTTTTTTTTTTTTTTT SHELLXN     TELAPSE      113.07 TCPU      111.83
 ::: TOTAL   ENERGY                               -1.3167030131142E+03
 ::: VIRIAL COEFFICIENT                            9.9971023580669E-01
 TTTTTTTTTTTTTTTTTTTTTTTTTTTTTT MONMO3      TELAPSE      113.08 TCPU      111.84
 CYC  35 ETOT(AU) -1.316703013114E+03 DETOT  6.93E-11 tst  4.46E-15 PX  1.72E-06

 == SCF ENDED - CONVERGENCE ON ENERGY      E(AU) -1.3167030131142E+03 CYCLES  35

 TOTAL ENERGY(HF)(AU)(  35) -1.3167030131142E+03 DE 6.9E-11 tst 4.5E-15 PX 1.7E-06

 *******************************************************************************
 *                             FORCE CALCULATION                               *
 *******************************************************************************

 INFORMATION **** EXCPOG **** EXCH. BIPO BUFFER LENGTH (WORDS) =     3664440
 INFORMATION **** GENPOG **** BIPO BUFFER LENGTH (WORDS) =      310500
 TTTTTTTTTTTTTTTTTTTTTTTTTTTTTT SHELXG      TELAPSE      137.53 TCPU      136.24

 CARTESIAN FORCES IN HARTREE/BOHR (ANALYTICAL)
   ATOM                     X                   Y                   Z
   1  14            -2.462721866324E-05  1.421853131663E-05  2.331468351713E-15
   2  14            -7.812683540298E-15 -2.843706263255E-05 -2.398081733190E-14
   3  14             2.462721863463E-05  1.421853131409E-05  1.065814103640E-14
   4   8            -4.426649378634E-06 -1.277352501473E-04  1.528635064880E-04
   5   8             1.128352963032E-04  6.003403426256E-05  1.528635064596E-04
   6   8            -1.084086468926E-04  6.770121587583E-05  1.528635064821E-04
   7   8             1.084086469163E-04  6.770121590736E-05 -1.528635064679E-04
   8   8             4.426649378634E-06 -1.277352501551E-04 -1.528635064726E-04
   9   8            -1.128352962867E-04  6.003403426226E-05 -1.528635064767E-04

 RESULTANT FORCE     3.696627964671E-15  3.793277812084E-15  1.443371247176E-15

 SYMMETRY ALLOWED FORCES (ANALYTICAL) (DIRECTION, FORCE)

    1 -4.9254437E-05    2 -1.0843032E-05    3 -3.1288619E-04    4  3.7443759E-04
 TTTTTTTTTTTTTTTTTTTTTTTTTTTTTT TOTGRA      TELAPSE      137.57 TCPU      136.28

 HHHHHHHHHHHHHHHHHHHHHHHHHHHHHHHHHHHHHHHHHHHHHHHHHHHHHHHHHHHHHHHHHHHHHHHHHHHHHHH
                   FORCE CONSTANT MATRIX - NUMERICAL ESTIMATE
 HHHHHHHHHHHHHHHHHHHHHHHHHHHHHHHHHHHHHHHHHHHHHHHHHHHHHHHHHHHHHHHHHHHHHHHHHHHHHHH
 MAX ABS(DGRAD): MAXIMUM ABSOLUTE GRADIENT DIFFERENCE WITH RESPECT TO
                 THE CENTRAL POINT
 DE:             ENERGY DIFFERENCE WITH RESPECT TO THE CENTRAL POINT
                 (DE IS EXPECTED TO BE POSITIVE FOR ALL DISPLACEMENTS)

   ATOM      MAX ABS(DGRAD)       TOTAL ENERGY (AU)  N.CYC      DE       SYM
    CENTRAL POINT             -1.316703013114E+03    35     0.0000E+00     6
    1 SI DX   2.9173E-03      -1.316703005073E+03    14     8.0409E-06     1
    1 SI DY                   GENERATED FROM A PREVIOUS LINE
    1 SI DZ   3.2434E-03      -1.316703003875E+03     7     9.2387E-06     1
    4 O  DX   6.1088E-04      -1.316703011573E+03     5     1.5409E-06     1
    4 O  DY   2.6628E-03      -1.316703004850E+03    18     8.2638E-06     1
    4 O  DZ   1.7098E-03      -1.316703008961E+03     9     4.1529E-06     1

 GCALCO - MAX INDICES DIRECT LATTICE VECTOR    16    16    12
 NO.OF VECTORS CREATED 6999 STARS  380 RMAX   108.01313 BOHR

 CAPPA:IS1  3;IS2  3;IS3  3; K PTS MONK NET   7; SYMMOPS:K SPACE  12;G SPACE   6

 TTTTTTTTTTTTTTTTTTTTTTTTTTTTTT gordsh1     TELAPSE     1760.26 TCPU     1755.16

 MATRIX SIZE: P(G)  300285, F(G)   50868, P(G) IRR   27704, F(G) IRR    9451
 MAX G-VECTOR INDEX FOR 1- AND 2-ELECTRON INTEGRALS 187

 TTTTTTTTTTTTTTTTTTTTTTTTTTTTTT INPUT       TELAPSE     1760.26 TCPU     1755.16

 SYMMETRY ALLOWED INTERNAL DEGREE(S) OF FREEDOM:   4
 TTTTTTTTTTTTTTTTTTTTTTTTTTTTTT SYMM        TELAPSE     1760.26 TCPU     1755.17
 TTTTTTTTTTTTTTTTTTTTTTTTTTTTTT INT_SCREEN  TELAPSE     1760.26 TCPU     1755.17

 ATOMIC BORN CHARGE TENSOR (UNITS OF e, ELECTRON CHARGE).
 DYNAMIC CHARGE = 1/3 * TRACE .

 ATOM   1 SI DYNAMIC CHARGE     3.490234

              1           2           3
   1     3.3202E+00  2.4356E-01 -1.2131E-01
   2     2.4356E-01  3.6014E+00 -2.1011E-01
   3     1.1367E-01  1.9688E-01  3.5491E+00

 ATOM   2 SI DYNAMIC CHARGE     3.490234

              1           2           3
   1     3.7421E+00  0.0000E+00  2.4262E-01
   2     3.4682E-17  3.1796E+00  0.0000E+00
   3    -2.2734E-01  0.0000E+00  3.5491E+00

 ATOM   3 SI DYNAMIC CHARGE     3.490234

              1           2           3
   1     3.3202E+00 -2.4356E-01 -1.2131E-01
   2    -2.4356E-01  3.6014E+00  2.1011E-01
   3     1.1367E-01 -1.9688E-01  3.5491E+00

 ATOM   4 O  DYNAMIC CHARGE    -1.745462

              1           2           3
   1    -1.1756E+00 -3.0493E-02 -6.5286E-02
   2    -7.0880E-02 -2.2854E+00 -7.3754E-01
   3    -1.3068E-01 -7.3975E-01 -1.7754E+00

 ATOM   5 O  DYNAMIC CHARGE    -1.745462

              1           2           3
   1    -2.0518E+00 -4.3500E-01  6.7137E-01
   2    -4.7538E-01 -1.4092E+00  3.1223E-01
   3     7.0598E-01  2.5671E-01 -1.7754E+00

 ATOM   6 O  DYNAMIC CHARGE    -1.745462

              1           2           3
   1    -1.9641E+00  5.2607E-01 -6.0609E-01
   2     4.8568E-01 -1.4970E+00  4.2531E-01
   3    -5.7531E-01  4.8305E-01 -1.7754E+00

 ATOM   7 O  DYNAMIC CHARGE    -1.745462

              1           2           3
   1    -1.9641E+00 -5.2607E-01 -6.0609E-01
   2    -4.8568E-01 -1.4970E+00 -4.2531E-01
   3    -5.7531E-01 -4.8305E-01 -1.7754E+00

 ATOM   8 O  DYNAMIC CHARGE    -1.745462

              1           2           3
   1    -1.1756E+00  3.0493E-02 -6.5286E-02
   2     7.0880E-02 -2.2854E+00  7.3754E-01
   3    -1.3068E-01  7.3975E-01 -1.7754E+00

 ATOM   9 O  DYNAMIC CHARGE    -1.745462

              1           2           3
   1    -2.0518E+00  4.3500E-01  6.7137E-01
   2     4.7538E-01 -1.4092E+00 -3.1223E-01
   3     7.0598E-01 -2.5671E-01 -1.7754E+00

 +++ SYMMETRY ADAPTION OF VIBRATIONAL MODES +++

 SYMMETRY INFORMATION:
 K-LITTLE GROUP: CLASS TABLE, CHARACTER TABLE.
 IRREP-(DIMENSION, NO. IRREDUCIBLE SETS)
 [WARNINGS: (1) ONLY ACTIVE IRREPS ARE GENERATED AND LISTED.
            (2) ONLY RELEVANT CLASSES ARE CONSIDERED IN THE CHARACTER TABLE
            (3) SYMBOLS MAY NOT FULLY COINCIDE WITH THOSE FROM TEXT BOOKS.]

 (P, D, RP, RD, STAND FOR PAIRING, DOUBLING, REAL PAIRING AND REAL DOUBLING 
 OF THE IRREPS (SEE MANUAL))

 CLASS  | GROUP OPERATORS (SEE SYMMOPS KEYWORD)
 --------------------------------------------------------------------
 C3     |   2;   3;
 C2     |   4;   5;   6;

 IRREP/CLA      E     C3     C2
 ------------------------------
  MULTIP |      1      2      3
 ------------------------------
    A1   |   1.00   1.00   1.00
    A2   |   1.00   1.00  -1.00
    E    |   2.00  -1.00  -0.00
 
 A1 -(1,   4); A2 -(1,   5); E  -(2,   9);


 BORN CHARGE VECTOR IN THE BASIS OF NORMAL MODES (UNITS OF e*M_E**(-1/2) ).
 e AND M_E ARE UNITS OF ELECTRON CHARGE AND MASS, RESPECTIVELY.

 MODE         X              Y              Z
   1    0.44669E-04   -0.25790E-04   -0.35962E-18
   2    0.25790E-04    0.44669E-04   -0.20960E-18
   3    0.59428E-18    0.23206E-18    0.13968E-04
   4    0.95242E-04   -0.54988E-04   -0.75715E-18
   5    0.54988E-04    0.95242E-04   -0.13824E-17
   6   -0.83278E-15   -0.95988E-15    0.29024E-16
   7    0.19848E-02   -0.11459E-02    0.67174E-18
   8    0.11459E-02    0.19848E-02   -0.81675E-19
   9    0.45116E-15    0.14417E-14   -0.50333E-16
  10    0.36646E-15   -0.16853E-14    0.11191E-01
  11    0.71762E-02   -0.41432E-02    0.92825E-18
  12    0.41432E-02    0.71762E-02   -0.37439E-18
  13   -0.13647E-01    0.78793E-02   -0.77414E-19
  14   -0.78793E-02   -0.13647E-01   -0.18155E-17
  15   -0.31873E-15    0.22650E-14   -0.17537E-16
  16   -0.35231E-15   -0.14388E-15   -0.16023E-01
  17    0.32446E-02   -0.18733E-02   -0.14721E-18
  18    0.18733E-02    0.32446E-02   -0.68627E-18
  19   -0.10991E-14    0.34021E-14   -0.88251E-02
  20   -0.94123E-02    0.54342E-02    0.29251E-18
  21   -0.54342E-02   -0.94123E-02    0.84017E-18
  22   -0.27095E-01    0.15643E-01    0.87347E-18
  23   -0.15643E-01   -0.27095E-01   -0.43719E-18
  24   -0.10608E-14    0.26299E-14    0.32386E-01
  25    0.50736E-15   -0.17669E-14    0.30422E-16
  26   -0.32721E-02    0.18891E-02   -0.26916E-18
  27   -0.18891E-02   -0.32721E-02   -0.88766E-18

 HHHHHHHHHHHHHHHHHHHHHHHHHHHHHHHHHHHHHHHHHHHHHHHHHHHHHHHHHHHHHHHHHHHHHHHHHHHHHH
 VIBRATIONAL CONTRIBUTIONS TO THE STATIC DIELECTRIC TENSOR (OSCILLATOR
 STRENGTHS) ARE PURE NUMBERS. THEY ARE COMPUTED FOR EACH nth MODE AS:

   f_(n,ij) = 1 / (4 * pi * eps0) * 4 * pi / V * Z_(n,i) * Z_(n,j) / nu_n**2

 WHERE:
  1/(4*pi*eps0)  1 A.U. [M*L**3*T**(-4)*C**(-2)]
  V              CELL VOLUME (BOHR**3) [L**3]
  Z_(n,i)        ith COMPONENT OF BORN CHARGE VECTOR IN THE BASIS
                 OF NORMAL MODES ( e*M_E**(-1/2) ) [C*T*M**(-1/2)]
  nu_n           FREQUENCY (HARTREE) [T**(-1)]
  e, M_E         UNITS OF ELECTRON CHARGE AND MASS, RESPECTIVELY
  M, L, T, C     MASS, LENGTH, TIME, CURRENT, RESPECTIVELY

 HHHHHHHHHHHHHHHHHHHHHHHHHHHHHHHHHHHHHHHHHHHHHHHHHHHHHHHHHHHHHHHHHHHHHHHHHHHHHH

 MODE      CARTESIAN AXES SYSTEM

   4       0.00035   -0.00020   -0.00000
          -0.00020    0.00012    0.00000
          -0.00000    0.00000    0.00000

   5       0.00012    0.00020   -0.00000
           0.00020    0.00035   -0.00000
          -0.00000   -0.00000    0.00000

   7       0.03853   -0.02224    0.00000
          -0.02224    0.01284   -0.00000
           0.00000   -0.00000    0.00000

   8       0.01284    0.02224   -0.00000
           0.02224    0.03853   -0.00000
          -0.00000   -0.00000    0.00000

  10       0.00000   -0.00000    0.00000
          -0.00000    0.00000   -0.00000
           0.00000   -0.00000    0.63713

  11       0.22319   -0.12886    0.00000
          -0.12886    0.07440   -0.00000
           0.00000   -0.00000    0.00000

  12       0.07440    0.12886   -0.00000
           0.12886    0.22319   -0.00000
          -0.00000   -0.00000    0.00000

  13       0.61167   -0.35315    0.00000
          -0.35315    0.20389   -0.00000
           0.00000   -0.00000    0.00000

  14       0.20389    0.35315    0.00000
           0.35315    0.61167    0.00000
           0.00000    0.00000    0.00000

  16       0.00000    0.00000    0.00000
           0.00000    0.00000    0.00000
           0.00000    0.00000    0.68786

  17       0.01529   -0.00883   -0.00000
          -0.00883    0.00510    0.00000
          -0.00000    0.00000    0.00000

  18       0.00510    0.00883   -0.00000
           0.00883    0.01529   -0.00000
          -0.00000   -0.00000    0.00000

  19       0.00000   -0.00000    0.00000
          -0.00000    0.00000   -0.00000
           0.00000   -0.00000    0.09098

  20       0.09795   -0.05655   -0.00000
          -0.05655    0.03265    0.00000
          -0.00000    0.00000    0.00000

  21       0.03265    0.05655   -0.00000
           0.05655    0.09795   -0.00000
          -0.00000   -0.00000    0.00000

  22       0.46061   -0.26593   -0.00000
          -0.26593    0.15354    0.00000
          -0.00000    0.00000    0.00000

  23       0.15354    0.26593    0.00000
           0.26593    0.46061    0.00000
           0.00000    0.00000    0.00000

  24       0.00000   -0.00000   -0.00000
          -0.00000    0.00000    0.00000
          -0.00000    0.00000    0.64999

  26       0.00558   -0.00322    0.00000
          -0.00322    0.00186   -0.00000
           0.00000   -0.00000    0.00000

  27       0.00186    0.00322    0.00000
           0.00322    0.00558    0.00000
           0.00000    0.00000    0.00000

 SUM TENSOR OF THE VIBRATIONAL CONTRIBUTIONS TO THE STATIC DIELECTRIC     TENSOR

           1.93756    0.00000    0.00000
           0.00000    1.93756   -0.00000
           0.00000   -0.00000    2.06596

 ANGLES BETWEEN CARTESIAN AXES AND CRYSTALLOGRAPHIC AXES (DEGREES)

   30.00000  90.00000  90.00000
  120.00000   0.00000  90.00000
   90.00000  90.00000   0.00000

 MODE      PRINCIPAL AXES SYSTEM             ANGLES BETWEEN PRINCIPAL AXES AND
                                             CRYSTALLOGRAPHIC AXES (DEGREES)

   4       0.00047    0.00000   -0.00000      0.00000 120.00000  90.00000
           0.00000   -0.00000   -0.00000     90.00000  30.00000  90.00000
          -0.00000   -0.00000    0.00000     90.00000  90.00000   0.00000

   5       0.00000   -0.00000    0.00000      0.00000 120.00000  90.00000
          -0.00000    0.00047   -0.00000     90.00000  30.00000  90.00000
           0.00000   -0.00000    0.00000     90.00000  90.00000   0.00000

   7       0.05137   -0.00000    0.00000      0.00000 120.00000  90.00000
           0.00000   -0.00000   -0.00000     90.00000  30.00000  90.00000
           0.00000   -0.00000    0.00000     90.00000  90.00000   0.00000

   8       0.00000    0.00000    0.00000      0.00000 120.00000  90.00000
          -0.00000    0.05137   -0.00000     90.00000  30.00000  90.00000
           0.00000   -0.00000    0.00000     90.00000  90.00000   0.00000

  10       0.00000   -0.00000    0.00000     30.00000  90.00000  90.00000
          -0.00000    0.00000   -0.00000    120.00000   0.00000  90.00000
           0.00000   -0.00000    0.63713     90.00000  90.00000   0.00000

  11       0.29759   -0.00000    0.00000      0.00000 120.00000  90.00000
           0.00000    0.00000    0.00000     90.00000  30.00000  90.00000
           0.00000   -0.00000    0.00000     90.00000  90.00000   0.00000

  12       0.00000   -0.00000    0.00000      0.00000 120.00000  90.00000
          -0.00000    0.29759   -0.00000     90.00000  30.00000  90.00000
           0.00000   -0.00000    0.00000     90.00000  90.00000   0.00000

  13       0.81556   -0.00000    0.00000      0.00000 120.00000  90.00000
          -0.00000   -0.00000   -0.00000     90.00000  30.00000  90.00000
           0.00000   -0.00000    0.00000     90.00000  90.00000   0.00000

  14      -0.00000   -0.00000   -0.00000      0.00000 120.00000  90.00000
          -0.00000    0.81556    0.00000     90.00000  30.00000  90.00000
          -0.00000    0.00000    0.00000     90.00000  90.00000   0.00000

  16       0.00000    0.00000    0.00000     30.00000  90.00000  90.00000
           0.00000    0.00000    0.00000    120.00000   0.00000  90.00000
           0.00000    0.00000    0.68786     90.00000  90.00000   0.00000

  17       0.02038   -0.00000   -0.00000      0.00000 120.00000  90.00000
          -0.00000    0.00000    0.00000     90.00000  30.00000  90.00000
          -0.00000    0.00000    0.00000     90.00000  90.00000   0.00000

  18      -0.00000   -0.00000    0.00000      0.00000 120.00000  90.00000
           0.00000    0.02038   -0.00000     90.00000  30.00000  90.00000
           0.00000   -0.00000    0.00000     90.00000  90.00000   0.00000

  19       0.00000   -0.00000    0.00000     30.00000  90.00000  90.00000
          -0.00000    0.00000   -0.00000    120.00000   0.00000  90.00000
           0.00000   -0.00000    0.09098     90.00000  90.00000   0.00000

  20       0.13060   -0.00000   -0.00000      0.00000 120.00000  90.00000
          -0.00000    0.00000    0.00000     90.00000  30.00000  90.00000
          -0.00000    0.00000    0.00000     90.00000  90.00000   0.00000

  21      -0.00000   -0.00000    0.00000      0.00000 120.00000  90.00000
          -0.00000    0.13060   -0.00000     90.00000  30.00000  90.00000
           0.00000   -0.00000    0.00000     90.00000  90.00000   0.00000

  22       0.61414   -0.00000   -0.00000      0.00000 120.00000  90.00000
          -0.00000   -0.00000    0.00000     90.00000  30.00000  90.00000
          -0.00000    0.00000    0.00000     90.00000  90.00000   0.00000

  23      -0.00000   -0.00000   -0.00000      0.00000 120.00000  90.00000
          -0.00000    0.61414    0.00000     90.00000  30.00000  90.00000
          -0.00000    0.00000    0.00000     90.00000  90.00000   0.00000

  24       0.00000   -0.00000   -0.00000     30.00000  90.00000  90.00000
          -0.00000    0.00000    0.00000    120.00000   0.00000  90.00000
          -0.00000    0.00000    0.64999     90.00000  90.00000   0.00000

  26       0.00745   -0.00000    0.00000      0.00000 120.00000  90.00000
          -0.00000    0.00000    0.00000     90.00000  30.00000  90.00000
           0.00000   -0.00000    0.00000     90.00000  90.00000   0.00000

  27      -0.00000    0.00000    0.00000      0.00000 120.00000  90.00000
           0.00000    0.00745    0.00000     90.00000  30.00000  90.00000
           0.00000    0.00000    0.00000     90.00000  90.00000   0.00000

 INTEGRATED IR INTENSITIES, IN UNITS OF KM/MOL, ARE COMPUTED UNDER THE
 HYPOTHESIS OF ISOTROPIC RESPONSE (I.E. POWDER SAMPLE):

   INTENS_n = 1 / (4 * pi * eps0) * pi * N_AV / 3 / c**2 *
                             * d_n * ( Z_(n,x)**2 + Z_(n,y)**2 + Z_(n,z)**2 )
            = 0.17770712E+07 * d_n * ( Z_(n,x)**2 + Z_(n,y)**2 + Z_(n,z)**2 )

 WHERE:
  1/(4*pi*eps0)  1 A.U. [M*L**3*T**(-4)*C**(-2)]
  N_AV           AVOGADRO'S NUMBER [QM**(-1)]
  c              SPEED OF LIGHT [L*T**(-1)]
  d_n            DEGENERACY OF THE MODE
  Z_(n,x)        xth COMPONENT OF BORN CHARGE VECTOR IN THE BASIS
                 OF NORMAL MODES ( e*M_E**(-1/2) ) [C*T*M**(-1/2)]
  M,L,T,C,QM     MASS, LENGTH, TIME, CURRENT, QUANTITY OF MATTER, RESPECTIVELY

 HHHHHHHHHHHHHHHHHHHHHHHHHHHHHHHHHHHHHHHHHHHHHHHHHHHHHHHHHHHHHHHHHHHHHHHHHHHHHH
 EIGENVALUES (EIGV) OF THE MASS WEIGHTED HESSIAN MATRIX AND HARMONIC TRANSVERSE
 OPTICAL (TO) FREQUENCIES. IRREP LABELS REFER TO SYMMETRY REPRESENTATION
 ANALYSIS; A AND I INDICATE WHETHER THE MODE IS ACTIVE OR INACTIVE,
 RESPECTIVELY, FOR IR AND RAMAN; INTEGRATED IR INTENSITIES IN BRACKETS.

 CONVERSION FACTORS FOR FREQUENCIES:
      1 CM**(-1) =   0.4556335E-05 HARTREE
      1 THZ      =   0.3335641E+02 CM**(-1)

 HHHHHHHHHHHHHHHHHHHHHHHHHHHHHHHHHHHHHHHHHHHHHHHHHHHHHHHHHHHHHHHHHHHHHHHHHHHHHH

    MODES         EIGV          FREQUENCIES     IRREP  IR   INTENS    RAMAN
             (HARTREE**2)   (CM**-1)     (THZ)             (KM/MOL)
    1-   2   -0.6149E-10     -1.7211   -0.0516  (E  )   A (     0.01)   A
    3-   3   -0.3842E-10     -1.3603   -0.0408  (A2 )   A (     0.00)   I
    4-   5    0.4223E-06    142.6165    4.2755  (E  )   A (     0.04)   A
    6-   6    0.1003E-05    219.7527    6.5880  (A1 )   I (     0.00)   A
    7-   8    0.1684E-05    284.8252    8.5388  (E  )   A (    18.67)   A
    9-   9    0.3048E-05    383.1400   11.4862  (A1 )   I (     0.00)   A
   10-  10    0.3238E-05    394.9022   11.8389  (A2 )   A (   222.54)   I
   11-  12    0.3800E-05    427.8568   12.8268  (E  )   A (   244.04)   A
   13-  14    0.5015E-05    491.5169   14.7353  (E  )   A (   882.62)   A
   15-  15    0.5217E-05    501.2923   15.0284  (A1 )   I (     0.00)   A
   16-  16    0.6148E-05    544.1802   16.3141  (A2 )   A (   456.24)   I
   17-  18    0.1134E-04    739.2131   22.1611  (E  )   A (    49.89)   A
   19-  19    0.1410E-04    824.1099   24.7062  (A2 )   A (   138.40)   I
   20-  21    0.1490E-04    847.1027   25.3955  (E  )   A (   419.82)   A
   22-  23    0.2625E-04   1124.5414   33.7129  (E  )   A (  3479.06)   A
   24-  24    0.2658E-04   1131.5054   33.9217  (A2 )   A (  1863.93)   I
   25-  25    0.2695E-04   1139.4181   34.1589  (A1 )   I (     0.00)   A
   26-  27    0.3158E-04   1233.4000   36.9764  (E  )   A (    50.74)   A

 NORMAL MODES NORMALIZED TO CLASSICAL AMPLITUDES (IN BOHR)

 FREQ(CM**-1)     -1.72     -1.72     -1.36    142.62    142.62    219.75

 AT.   1 SI X    -0.5404   -0.3105   -0.0005   -0.0173    0.0120    0.0304
            Y     0.3120   -0.5378   -0.0009    0.0100    0.0207   -0.0175
            Z     0.0000   -0.0010    0.7017    0.0000    0.0086    0.0000
 AT.   2 SI X    -0.5378   -0.3105    0.0010    0.0207    0.0120    0.0000
            Y     0.3120   -0.5404    0.0000    0.0100   -0.0173    0.0351
            Z     0.0009    0.0005    0.7017   -0.0075   -0.0043    0.0000
 AT.   3 SI X    -0.5391   -0.3128   -0.0005    0.0017   -0.0210   -0.0304
            Y     0.3097   -0.5391    0.0009   -0.0229    0.0017   -0.0175
            Z    -0.0009    0.0005    0.7017    0.0075   -0.0043    0.0000
 AT.   4 O  X    -0.5470   -0.3107   -0.0017   -0.0771    0.0079   -0.0144
            Y     0.3104   -0.5366   -0.0004   -0.0261    0.0560   -0.0530
            Z     0.0030   -0.0047    0.7011    0.0509   -0.0652    0.0402
 AT.   5 O  X    -0.5393   -0.3059    0.0012    0.0148    0.0792    0.0531
            Y     0.3152   -0.5443   -0.0013    0.0452   -0.0360    0.0140
            Z     0.0025    0.0050    0.7011    0.0310    0.0767    0.0402
 AT.   6 O  X    -0.5390   -0.3150    0.0005    0.0306   -0.0361   -0.0387
            Y     0.3061   -0.5446    0.0017   -0.0701   -0.0517    0.0390
            Z    -0.0056   -0.0003    0.7011   -0.0820   -0.0115    0.0402
 AT.   7 O  X    -0.5423   -0.3093    0.0005   -0.0160    0.0445    0.0387
            Y     0.3185   -0.5374   -0.0017    0.0799    0.0349    0.0390
            Z    -0.0030   -0.0047    0.7011   -0.0509   -0.0652   -0.0402
 AT.   8 O  X    -0.5426   -0.3184   -0.0017   -0.0317   -0.0708    0.0144
            Y     0.3095   -0.5371    0.0004   -0.0354    0.0506   -0.0530
            Z    -0.0025    0.0050    0.7011   -0.0310    0.0767   -0.0402
 AT.   9 O  X    -0.5346   -0.3141    0.0012    0.0760   -0.0267   -0.0531
            Y     0.3138   -0.5451    0.0013    0.0086   -0.0571    0.0140
            Z     0.0056   -0.0003    0.7011    0.0820   -0.0115   -0.0402

 FREQ(CM**-1)    284.83    284.83    383.14    394.90    427.86    427.86

 AT.   1 SI X    -0.0021    0.0066   -0.0390    0.0033   -0.0095    0.0182
            Y     0.0012    0.0114    0.0225    0.0056    0.0055    0.0315
            Z     0.0000    0.0284    0.0000    0.0194    0.0000   -0.0223
 AT.   2 SI X     0.0114    0.0066    0.0000   -0.0065    0.0315    0.0182
            Y     0.0012   -0.0021   -0.0450    0.0000    0.0055   -0.0095
            Z    -0.0246   -0.0142    0.0000    0.0194    0.0193    0.0111
 AT.   3 SI X     0.0047   -0.0051    0.0390    0.0033    0.0110   -0.0174
            Y    -0.0105    0.0047    0.0225   -0.0056   -0.0301    0.0110
            Z     0.0246   -0.0142    0.0000    0.0194   -0.0193    0.0111
 AT.   4 O  X     0.0190   -0.0793   -0.0205    0.0460   -0.0152   -0.0266
            Y    -0.0150    0.0070    0.0043    0.0202    0.0231    0.0183
            Z     0.0298    0.0113    0.0326   -0.0168   -0.0484   -0.0045
 AT.   5 O  X    -0.0308   -0.0138    0.0065   -0.0406    0.0084   -0.0094
            Y     0.0506    0.0569   -0.0199    0.0297    0.0402   -0.0053
            Z    -0.0247    0.0201    0.0326   -0.0168    0.0281   -0.0397
 AT.   6 O  X     0.0509   -0.0034    0.0140   -0.0055    0.0115   -0.0385
            Y     0.0610   -0.0248    0.0156   -0.0500    0.0112   -0.0083
            Z    -0.0051   -0.0315    0.0326   -0.0168    0.0203    0.0441
 AT.   7 O  X     0.0225    0.0458   -0.0140   -0.0055   -0.0276    0.0292
            Y    -0.0090   -0.0652    0.0156    0.0500    0.0016   -0.0138
            Z    -0.0298    0.0113   -0.0326   -0.0168    0.0484   -0.0045
 AT.   8 O  X    -0.0592    0.0561    0.0205    0.0460   -0.0306    0.0001
            Y     0.0014    0.0165    0.0043   -0.0202   -0.0274   -0.0108
            Z     0.0247    0.0201   -0.0326   -0.0168   -0.0281   -0.0397
 AT.   9 O  X    -0.0274   -0.0198   -0.0065   -0.0406   -0.0039    0.0120
            Y    -0.0745   -0.0154   -0.0199   -0.0297   -0.0155   -0.0375
            Z     0.0051   -0.0315   -0.0326   -0.0168   -0.0203    0.0441

 FREQ(CM**-1)    491.52    491.52    501.29    544.18    739.21    739.21

 AT.   1 SI X    -0.0153   -0.0138   -0.0108   -0.0074   -0.0071    0.0083
            Y     0.0089   -0.0239    0.0063   -0.0128    0.0041    0.0143
            Z     0.0000    0.0128    0.0000   -0.0203    0.0000    0.0496
 AT.   2 SI X    -0.0239   -0.0138    0.0000    0.0148    0.0143    0.0083
            Y     0.0089   -0.0153   -0.0125    0.0000    0.0041   -0.0071
            Z    -0.0111   -0.0064    0.0000   -0.0203   -0.0429   -0.0248
 AT.   3 SI X    -0.0196   -0.0064    0.0108   -0.0074    0.0036   -0.0103
            Y     0.0163   -0.0196    0.0063    0.0128   -0.0144    0.0036
            Z     0.0111   -0.0064    0.0000   -0.0203    0.0429   -0.0248
 AT.   4 O  X     0.0364   -0.0025    0.0456    0.0273   -0.0049    0.0136
            Y     0.0152    0.0193   -0.0085   -0.0262    0.0244    0.0026
            Z    -0.0112   -0.0442    0.0147    0.0178   -0.0018    0.0116
 AT.   5 O  X     0.0291   -0.0194   -0.0154    0.0090    0.0172   -0.0117
            Y    -0.0017    0.0267    0.0437    0.0368   -0.0008   -0.0194
            Z     0.0439    0.0124    0.0147    0.0178   -0.0092   -0.0074
 AT.   6 O  X     0.0181   -0.0046   -0.0301   -0.0363   -0.0157   -0.0181
            Y     0.0131    0.0377   -0.0352   -0.0106   -0.0073    0.0135
            Z    -0.0327    0.0318    0.0147    0.0178    0.0110   -0.0042
 AT.   7 O  X     0.0051    0.0180    0.0301   -0.0363   -0.0236   -0.0045
            Y    -0.0391    0.0075   -0.0352    0.0106   -0.0080    0.0130
            Z     0.0112   -0.0442   -0.0147    0.0178    0.0018    0.0116
 AT.   8 O  X     0.0161    0.0328   -0.0456    0.0273    0.0093   -0.0110
            Y    -0.0243   -0.0035   -0.0085    0.0262   -0.0145   -0.0198
            Z    -0.0439    0.0124   -0.0147    0.0178    0.0092   -0.0074
 AT.   9 O  X    -0.0022    0.0349    0.0154    0.0090   -0.0015    0.0207
            Y    -0.0222    0.0148    0.0437   -0.0368    0.0172   -0.0090
            Z     0.0327    0.0318   -0.0147    0.0178   -0.0110   -0.0042

 FREQ(CM**-1)    824.11    847.10    847.10   1124.54   1124.54   1131.51

 AT.   1 SI X     0.0197   -0.0394    0.0107   -0.0094   -0.0107    0.0023
            Y     0.0340    0.0227    0.0186    0.0054   -0.0186    0.0040
            Z    -0.0093    0.0000   -0.0104    0.0000    0.0055    0.0168
 AT.   2 SI X    -0.0393    0.0186    0.0107   -0.0186   -0.0107   -0.0046
            Y     0.0000    0.0227   -0.0394    0.0054   -0.0094    0.0000
            Z    -0.0093    0.0090    0.0052   -0.0047   -0.0027    0.0168
 AT.   3 SI X     0.0197   -0.0104   -0.0395   -0.0140   -0.0028    0.0023
            Y    -0.0340   -0.0274   -0.0104    0.0134   -0.0140   -0.0040
            Z    -0.0093   -0.0090    0.0052    0.0047   -0.0027    0.0168
 AT.   4 O  X     0.0033    0.0165    0.0107   -0.0049    0.0015   -0.0012
            Y    -0.0041   -0.0119   -0.0053   -0.0165    0.0271   -0.0250
            Z     0.0082    0.0080    0.0061   -0.0131    0.0223   -0.0147
 AT.   5 O  X     0.0019   -0.0004    0.0022    0.0126    0.0266    0.0222
            Y     0.0049   -0.0204    0.0116    0.0086    0.0096    0.0115
            Z     0.0082   -0.0093    0.0039   -0.0127   -0.0225   -0.0147
 AT.   6 O  X    -0.0052    0.0007    0.0211    0.0256   -0.0011   -0.0210
            Y    -0.0009   -0.0015    0.0105   -0.0191   -0.0034    0.0135
            Z     0.0082    0.0013   -0.0100    0.0258    0.0002   -0.0147
 AT.   7 O  X    -0.0052    0.0186   -0.0100    0.0119    0.0227   -0.0210
            Y     0.0009   -0.0083    0.0066    0.0125    0.0148   -0.0135
            Z     0.0082   -0.0080    0.0061    0.0131    0.0223   -0.0147
 AT.   8 O  X     0.0033    0.0175    0.0089   -0.0012   -0.0050   -0.0012
            Y     0.0041    0.0106    0.0076   -0.0152    0.0279    0.0250
            Z     0.0082    0.0093    0.0039    0.0127   -0.0225   -0.0147
 AT.   9 O  X     0.0019    0.0017   -0.0014    0.0293   -0.0024    0.0222
            Y    -0.0049    0.0002    0.0235   -0.0126   -0.0026   -0.0115
            Z     0.0082   -0.0013   -0.0100   -0.0258    0.0002   -0.0147

 FREQ(CM**-1)   1139.42   1233.40   1233.40

 AT.   1 SI X     0.0143   -0.0006   -0.0023
            Y    -0.0083    0.0004   -0.0039
            Z     0.0000    0.0000   -0.0179
 AT.   2 SI X     0.0000   -0.0039   -0.0023
            Y     0.0165    0.0004   -0.0006
            Z     0.0000    0.0155    0.0089
 AT.   3 SI X    -0.0143   -0.0023    0.0006
            Y    -0.0083    0.0032   -0.0023
            Z     0.0000   -0.0155    0.0089
 AT.   4 O  X     0.0023    0.0037    0.0008
            Y     0.0228    0.0281    0.0174
            Z     0.0183    0.0215    0.0129
 AT.   5 O  X    -0.0209    0.0265   -0.0149
            Y    -0.0094    0.0123   -0.0054
            Z     0.0183   -0.0220    0.0122
 AT.   6 O  X     0.0186    0.0014   -0.0268
            Y    -0.0134    0.0005    0.0196
            Z     0.0183    0.0004   -0.0251
 AT.   7 O  X    -0.0186   -0.0225    0.0146
            Y    -0.0134   -0.0172    0.0094
            Z    -0.0183   -0.0215    0.0129
 AT.   8 O  X    -0.0023    0.0025    0.0028
            Y     0.0228   -0.0291   -0.0156
            Z    -0.0183    0.0220    0.0122
 AT.   9 O  X     0.0209    0.0003    0.0304
            Y    -0.0094   -0.0015   -0.0134
            Z    -0.0183   -0.0004   -0.0251

 *******************************************************************************

 VIBRATIONAL TEMPERATURES (K) [MODE NUMBER;IRREP]

 TO MODES
   205.2 [   4;E  ]   205.2 [   5;E  ]   316.2 [   6;A1 ]   409.8 [   7;E  ]
   409.8 [   8;E  ]   551.3 [   9;A1 ]   568.2 [  10;A2 ]   615.6 [  11;E  ]
   615.6 [  12;E  ]   707.2 [  13;E  ]   707.2 [  14;E  ]   721.2 [  15;A1 ]
   783.0 [  16;A2 ]  1063.6 [  17;E  ]  1063.6 [  18;E  ]  1185.7 [  19;A2 ]
  1218.8 [  20;E  ]  1218.8 [  21;E  ]  1618.0 [  22;E  ]  1618.0 [  23;E  ]
  1628.0 [  24;A2 ]  1639.4 [  25;A1 ]  1774.6 [  26;E  ]  1774.6 [  27;E  ]

 *******************************************************************************

 HARMONIC VIBRATIONAL CONTRIBUTIONS TO THERMODYNAMIC FUNCTIONS AT GIVEN
 TEMPERATURE AND PRESSURE:

 (EL = ELECTRONIC ENERGY
  E0 = ZERO-POINT ENERGY
  ET = THERMAL CONTRIBUTION TO THE VIBRATIONAL ENERGY
  PV = PRESSURE * VOLUME
  TS = TEMPERATURE * ENTROPY)

                          AU/CELL             EV/CELL                 KJ/MOL
 EL            :   -1316.703013114176  -35829.310513785073    -3457003.27375115
 E0            :       0.035813810914       0.974543339794          94.02914730


 *******************************************************************************

 THERMODYNAMIC FUNCTIONS WITH VIBRATIONAL CONTRIBUTIONS

 AT (T =  298.15 K, P =   0.10132500E+00 MPA):

                          AU/CELL             EV/CELL                 KJ/MOL
 ET            :       0.005323382996       0.144856615700          13.97654009
 PV            :       0.000002627503       0.000071498000           0.00689851
 TS            :       0.008632623823       0.234905636586          22.66495065
 ET+PV-TS      :      -0.003306613323      -0.089977522886          -8.68151206
 EL+E0+ET+PV-TS:   -1316.670505916585  -35828.425947968171    -3456917.92611591

 OTHER THERMODYNAMIC FUNCTIONS:

                      mHARTREE/(CELL*K)     mEV/(CELL*K)              J/(MOL*K)
 ENTROPY       :       0.028953962176       0.787877365709          76.01861698
 HEAT CAPACITY :       0.038956164043       1.060051115566         102.27939428

 *******************************************************************************
 TTTTTTTTTTTTTTTTTTTTTTTTTTTTTT END         TELAPSE     1760.27 TCPU     1755.17
 EEEEEEEEEE TERMINATION  DATE 16 07 2024 TIME 15:47:54.3
NODE    0 CPU TIME =      1755.170
NODE    1 CPU TIME =      1755.749
NODE    2 CPU TIME =      1755.734
NODE    3 CPU TIME =      1756.012
NODE    4 CPU TIME =      1755.399
NODE    5 CPU TIME =      1755.557
NODE    6 CPU TIME =      1755.652
NODE    7 CPU TIME =      1755.784
    TOTAL CPU TIME =     14045.057
